
     Program PWSCF v.5.1 starts on 19Jun2018 at  0: 0:33 

     This program is part of the open-source Quantum ESPRESSO suite
     for quantum simulation of materials; please cite
         "P. Giannozzi et al., J. Phys.:Condens. Matter 21 395502 (2009);
          URL http://www.quantum-espresso.org", 
     in publications or presentations arising from this work. More details at
     http://www.quantum-espresso.org/quote

     Parallel version (MPI), running on     1 processors
     Waiting for input...
     Reading input from standard input
Warning: card &CELL ignored
Warning: card / ignored

     Current dimensions of program PWSCF are:
     Max number of different atomic species (ntypx) = 10
     Max number of k-points (npk) =  40000
     Max angular momentum in pseudopotentials (lmaxx) =  3
               file C.pbe-n-kjpaw_psl.1.0.0.UPF: wavefunction(s)  2S 2P renormalized
               file O.pbe-n-kjpaw_psl.0.1.U: wavefunction(s)  2P renormalized

     Subspace diagonalization in iterative solution of the eigenvalue problem:
     a serial algorithm will be used


     G-vector sticks info
     --------------------
     sticks:   dense  smooth     PW     G-vecs:    dense   smooth      PW
     Sum         649     313    109               100611    35335    6935



     bravais-lattice index     =            4
     lattice parameter (alat)  =       5.4490  a.u.
     unit-cell volume          =    1040.6255 (a.u.)^3
     number of atoms/cell      =            6
     number of atomic types    =            3
     number of electrons       =        86.00
     number of Kohn-Sham states=           52
     kinetic-energy cutoff     =      40.0000  Ry
     charge density cutoff     =     320.0000  Ry
     convergence threshold     =      1.0E-06
     mixing beta               =       0.7000
     number of iterations used =            8  plain     mixing
     Exchange-correlation      =  SLA  PW   PBX  PBC ( 1  4  3  4 0)
     nstep                     =           50


     celldm(1)=   5.449000  celldm(2)=   0.000000  celldm(3)=   7.427000
     celldm(4)=   0.000000  celldm(5)=   0.000000  celldm(6)=   0.000000

     crystal axes: (cart. coord. in units of alat)
               a(1) = (   1.000000   0.000000   0.000000 )  
               a(2) = (  -0.500000   0.866025   0.000000 )  
               a(3) = (   0.000000   0.000000   7.427000 )  

     reciprocal axes: (cart. coord. in units 2 pi/alat)
               b(1) = (  1.000000  0.577350 -0.000000 )  
               b(2) = (  0.000000  1.154701  0.000000 )  
               b(3) = (  0.000000 -0.000000  0.134644 )  


     PseudoPot. # 1 for Au read from file:
     /home/oropebuen/Documents/Job/Absortion/SSSP_efficiency_pseudos/Au_ONCV_PBE-1.0.upf
     MD5 check sum: 1009843a674e36925f098327e430af60
     Pseudo is Norm-conserving, Zval = 19.0
     Generated using ONCVPSP code by D. R. Hamann
     Using radial grid of  602 points,  8 beta functions with: 
                l(1) =   0
                l(2) =   0
                l(3) =   1
                l(4) =   1
                l(5) =   2
                l(6) =   2
                l(7) =   3
                l(8) =   3

     PseudoPot. # 2 for  C read from file:
     /home/oropebuen/Documents/Job/Absortion/SSSP_efficiency_pseudos/C.pbe-n-kjpaw_psl.1.0.0.UPF
     MD5 check sum: 8e281b34a927efac7e739263a90d7aed
     Pseudo is Projector augmented-wave + core cor, Zval =  4.0
     Generated using "atomic" code by A. Dal Corso  v.5.1
     Shape of augmentation charge: PSQ
     Using radial grid of 1073 points,  4 beta functions with: 
                l(1) =   0
                l(2) =   0
                l(3) =   1
                l(4) =   1
     Q(r) pseudized with 0 coefficients 


     PseudoPot. # 3 for  O read from file:
     /home/oropebuen/Documents/Job/Absortion/SSSP_efficiency_pseudos/O.pbe-n-kjpaw_psl.0.1.U
     MD5 check sum: 3f94a2996a3169367d6eb21d9b593f20
     Pseudo is Projector augmented-wave + core cor, Zval =  6.0
     Generated using "atomic" code by A. Dal Corso  v.5.0.99 svn rev. 10869
     Shape of augmentation charge: BESSEL
     Using radial grid of 1095 points,  4 beta functions with: 
                l(1) =   0
                l(2) =   0
                l(3) =   1
                l(4) =   1
     Q(r) pseudized with 0 coefficients 


     atomic species   valence    mass     pseudopotential
        Au            19.00   196.96600     Au( 1.00)
        C              4.00    12.01070      C( 1.00)
        O              6.00    15.99940      O( 1.00)

      2 Sym. Ops. (no inversion) found



   Cartesian axes

     site n.     atom                  positions (alat units)
         1           Au  tau(   1) = (   0.0000000   0.0000000   0.0000000  )
         2           Au  tau(   2) = (   0.5000000   0.2886750   0.8164970  )
         3           Au  tau(   3) = (   0.0000000   0.5773500   1.6329930  )
         4           Au  tau(   4) = (   0.0000000   0.0000000   2.4494900  )
         5           C   tau(   5) = (   0.0000000   0.0000000   3.0737340  )
         6           O   tau(   6) = (   0.0000010   0.0010000   3.4648430  )

     number of k points=    52  gaussian smearing, width (Ry)=  0.0100
                       cart. coord. in units 2pi/alat
        k(    1) = (   0.0625000   0.1082532  -0.0673219), wk =   0.0416667
        k(    2) = (   0.0625000   0.2525907  -0.0673219), wk =   0.0416667
        k(    3) = (   0.0625000   0.3969283  -0.0673219), wk =   0.0416667
        k(    4) = (   0.0625000   0.5412659  -0.0673219), wk =   0.0416667
        k(    5) = (   0.0625000  -0.4690971  -0.0673219), wk =   0.0416667
        k(    6) = (   0.0625000  -0.3247595  -0.0673219), wk =   0.0416667
        k(    7) = (   0.0625000  -0.1804220  -0.0673219), wk =   0.0416667
        k(    8) = (   0.0625000  -0.0360844  -0.0673219), wk =   0.0416667
        k(    9) = (   0.1875000   0.3247595  -0.0673219), wk =   0.0416667
        k(   10) = (   0.1875000   0.4690971  -0.0673219), wk =   0.0416667
        k(   11) = (   0.1875000   0.6134347  -0.0673219), wk =   0.0416667
        k(   12) = (   0.1875000  -0.3969283  -0.0673219), wk =   0.0416667
        k(   13) = (   0.1875000  -0.2525907  -0.0673219), wk =   0.0416667
        k(   14) = (   0.1875000  -0.1082532  -0.0673219), wk =   0.0416667
        k(   15) = (   0.3125000   0.5412659  -0.0673219), wk =   0.0416667
        k(   16) = (   0.3125000   0.6856034  -0.0673219), wk =   0.0416667
        k(   17) = (   0.3125000  -0.3247595  -0.0673219), wk =   0.0416667
        k(   18) = (   0.3125000  -0.1804220  -0.0673219), wk =   0.0416667
        k(   19) = (   0.4375000   0.7577722  -0.0673219), wk =   0.0416667
        k(   20) = (   0.4375000  -0.2525907  -0.0673219), wk =   0.0416667
        k(   21) = (   0.1250000   0.0000000  -0.0673219), wk =   0.0208333
        k(   22) = (  -0.1875000   0.1804220  -0.0673219), wk =   0.0416667
        k(   23) = (   0.2500000   0.0721688  -0.0673219), wk =   0.0416667
        k(   24) = (  -0.3125000   0.2525907  -0.0673219), wk =   0.0416667
        k(   25) = (   0.3750000   0.1443376  -0.0673219), wk =   0.0416667
        k(   26) = (  -0.4375000   0.3247595  -0.0673219), wk =   0.0416667
        k(   27) = (   0.5000000   0.2165064  -0.0673219), wk =   0.0416667
        k(   28) = (   0.4375000  -0.1804220  -0.0673219), wk =   0.0416667
        k(   29) = (  -0.3750000  -0.2886751  -0.0673219), wk =   0.0416667
        k(   30) = (   0.3125000  -0.1082532  -0.0673219), wk =   0.0416667
        k(   31) = (  -0.2500000  -0.2165064  -0.0673219), wk =   0.0416667
        k(   32) = (   0.1875000  -0.0360844  -0.0673219), wk =   0.0416667
        k(   33) = (  -0.1250000  -0.1443376  -0.0673219), wk =   0.0416667
        k(   34) = (   0.0000000  -0.0721688  -0.0673219), wk =   0.0208333
        k(   35) = (   0.3750000   0.0000000  -0.0673219), wk =   0.0208333
        k(   36) = (  -0.3125000   0.3969283  -0.0673219), wk =   0.0416667
        k(   37) = (   0.5000000   0.0721688  -0.0673219), wk =   0.0416667
        k(   38) = (  -0.4375000   0.4690971  -0.0673219), wk =   0.0416667
        k(   39) = (   0.6250000   0.1443376  -0.0673219), wk =   0.0416667
        k(   40) = (   0.4375000  -0.0360844  -0.0673219), wk =   0.0416667
        k(   41) = (  -0.2500000  -0.3608439  -0.0673219), wk =   0.0416667
        k(   42) = (   0.3125000   0.0360844  -0.0673219), wk =   0.0416667
        k(   43) = (  -0.1250000  -0.2886751  -0.0673219), wk =   0.0416667
        k(   44) = (   0.0000000  -0.2165064  -0.0673219), wk =   0.0208333
        k(   45) = (   0.6250000   0.0000000  -0.0673219), wk =   0.0208333
        k(   46) = (  -0.4375000   0.6134347  -0.0673219), wk =   0.0416667
        k(   47) = (   0.7500000   0.0721688  -0.0673219), wk =   0.0416667
        k(   48) = (   0.4375000   0.1082532  -0.0673219), wk =   0.0416667
        k(   49) = (  -0.1250000  -0.4330127  -0.0673219), wk =   0.0416667
        k(   50) = (   0.0000000  -0.3608439  -0.0673219), wk =   0.0208333
        k(   51) = (   0.8750000   0.0000000  -0.0673219), wk =   0.0208333
        k(   52) = (   0.0000000  -0.5051815  -0.0673219), wk =   0.0208333

     Dense  grid:   100611 G-vectors     FFT dimensions: (  32,  32, 240)

     Smooth grid:    35335 G-vectors     FFT dimensions: (  24,  24, 180)

     Largest allocated arrays     est. size (Mb)     dimensions
        Kohn-Sham Wavefunctions         3.59 Mb     (    4520,   52)
        NL pseudopotentials             9.93 Mb     (    4520,  144)
        Each V/rho on FFT grid          3.75 Mb     (  245760)
        Each G-vector array             0.77 Mb     (  100611)
        G-vector shells                 0.04 Mb     (    4911)
     Largest temporary arrays     est. size (Mb)     dimensions
        Auxiliary wavefunctions        14.35 Mb     (    4520,  208)
        Each subspace H/S matrix        0.66 Mb     (     208,  208)
        Each <psi_i|beta_j> matrix      0.11 Mb     (     144,   52)
        Arrays for rho mixing          30.00 Mb     (  245760,    8)

     Check: negative/imaginary core charge=   -0.000003    0.000000

     Initial potential from superposition of free atoms
     Check: negative starting charge=   -0.000174

     starting charge   85.91012, renormalised to   86.00000

     negative rho (up, down):  1.742E-04 0.000E+00
     Starting wfc are    8 randomized atomic wfcs +   44 random wfc
     Checking if some PAW data can be deallocated... 

     total cpu time spent up to now is       59.7 secs

     per-process dynamical memory:   267.5 Mb

     Self-consistent Calculation

     iteration #  1     ecut=    40.00 Ry     beta=0.70
     Davidson diagonalization with overlap
     ethr =  1.00E-02,  avg # of iterations =  7.1

     Threshold (ethr) on eigenvalues was too large:
     Diagonalizing with lowered threshold

     Davidson diagonalization with overlap
     ethr =  6.01E-04,  avg # of iterations =  1.0

     negative rho (up, down):  1.492E-04 0.000E+00

     total cpu time spent up to now is      667.2 secs

     total energy              =   -1158.48970841 Ry
     Harris-Foulkes estimate   =   -1158.90709877 Ry
     estimated scf accuracy    <       0.51752615 Ry

     iteration #  2     ecut=    40.00 Ry     beta=0.70
     Davidson diagonalization with overlap
     ethr =  6.02E-04,  avg # of iterations =  5.2

     negative rho (up, down):  3.175E-04 0.000E+00

     total cpu time spent up to now is      901.9 secs

     total energy              =   -1152.01664260 Ry
     Harris-Foulkes estimate   =   -1164.22655495 Ry
     estimated scf accuracy    <     342.79780755 Ry

     iteration #  3     ecut=    40.00 Ry     beta=0.70
     Davidson diagonalization with overlap
     ethr =  6.02E-04,  avg # of iterations =  4.9

     negative rho (up, down):  1.973E-04 0.000E+00

     total cpu time spent up to now is     1118.5 secs

     total energy              =   -1158.51962957 Ry
     Harris-Foulkes estimate   =   -1159.11826856 Ry
     estimated scf accuracy    <       2.03897859 Ry

     iteration #  4     ecut=    40.00 Ry     beta=0.70
     Davidson diagonalization with overlap
     ethr =  6.02E-04,  avg # of iterations =  4.1

     negative rho (up, down):  1.326E-04 0.000E+00

     total cpu time spent up to now is     1291.1 secs

     total energy              =   -1158.79740133 Ry
     Harris-Foulkes estimate   =   -1158.83752930 Ry
     estimated scf accuracy    <       0.31736129 Ry

     iteration #  5     ecut=    40.00 Ry     beta=0.70
     Davidson diagonalization with overlap
     ethr =  3.69E-04,  avg # of iterations =  3.3

     negative rho (up, down):  1.321E-04 0.000E+00

     total cpu time spent up to now is     1447.9 secs

     total energy              =   -1158.79054369 Ry
     Harris-Foulkes estimate   =   -1158.85348891 Ry
     estimated scf accuracy    <       0.39597700 Ry

     iteration #  6     ecut=    40.00 Ry     beta=0.70
     Davidson diagonalization with overlap
     ethr =  3.69E-04,  avg # of iterations =  3.0

     negative rho (up, down):  1.356E-04 0.000E+00

     total cpu time spent up to now is     1595.9 secs

     total energy              =   -1158.81685498 Ry
     Harris-Foulkes estimate   =   -1158.82457531 Ry
     estimated scf accuracy    <       0.05692574 Ry

     iteration #  7     ecut=    40.00 Ry     beta=0.70
     Davidson diagonalization with overlap
     ethr =  6.62E-05,  avg # of iterations =  2.1

     negative rho (up, down):  1.382E-04 0.000E+00

     total cpu time spent up to now is     1736.5 secs

     total energy              =   -1158.81886667 Ry
     Harris-Foulkes estimate   =   -1158.82129593 Ry
     estimated scf accuracy    <       0.05780229 Ry

     iteration #  8     ecut=    40.00 Ry     beta=0.70
     Davidson diagonalization with overlap
     ethr =  6.62E-05,  avg # of iterations =  1.0

     negative rho (up, down):  1.417E-04 0.000E+00

     total cpu time spent up to now is     1870.6 secs

     total energy              =   -1158.81872453 Ry
     Harris-Foulkes estimate   =   -1158.82001508 Ry
     estimated scf accuracy    <       0.02652637 Ry

     iteration #  9     ecut=    40.00 Ry     beta=0.70
     Davidson diagonalization with overlap
     ethr =  3.08E-05,  avg # of iterations =  1.3

     negative rho (up, down):  1.426E-04 0.000E+00

     total cpu time spent up to now is     2007.1 secs

     total energy              =   -1158.81877071 Ry
     Harris-Foulkes estimate   =   -1158.81910430 Ry
     estimated scf accuracy    <       0.01010602 Ry

     iteration # 10     ecut=    40.00 Ry     beta=0.70
     Davidson diagonalization with overlap
     ethr =  1.18E-05,  avg # of iterations =  1.9

     negative rho (up, down):  1.434E-04 0.000E+00

     total cpu time spent up to now is     2144.3 secs

     total energy              =   -1158.81865548 Ry
     Harris-Foulkes estimate   =   -1158.81882733 Ry
     estimated scf accuracy    <       0.00523290 Ry

     iteration # 11     ecut=    40.00 Ry     beta=0.70
     Davidson diagonalization with overlap
     ethr =  6.08E-06,  avg # of iterations =  1.6

     negative rho (up, down):  1.447E-04 0.000E+00

     total cpu time spent up to now is     2285.1 secs

     total energy              =   -1158.81837191 Ry
     Harris-Foulkes estimate   =   -1158.81867944 Ry
     estimated scf accuracy    <       0.00289104 Ry

     iteration # 12     ecut=    40.00 Ry     beta=0.70
     Davidson diagonalization with overlap
     ethr =  3.36E-06,  avg # of iterations =  3.0

     negative rho (up, down):  1.449E-04 0.000E+00

     total cpu time spent up to now is     2440.3 secs

     total energy              =   -1158.81851619 Ry
     Harris-Foulkes estimate   =   -1158.81851777 Ry
     estimated scf accuracy    <       0.00000343 Ry

     iteration # 13     ecut=    40.00 Ry     beta=0.70
     Davidson diagonalization with overlap
     ethr =  3.98E-09,  avg # of iterations =  2.1

     negative rho (up, down):  1.449E-04 0.000E+00

     total cpu time spent up to now is     2618.8 secs

     End of self-consistent calculation

          k = 0.0625 0.1083-0.0673 (  4518 PWs)   bands (ev):

   -99.3117 -98.0222 -97.9211 -97.4944 -51.0237 -50.4127 -50.3993 -49.3747
   -49.2543 -49.2389 -49.2064 -49.1662 -49.1529 -48.7598 -48.7462 -48.7103
   -17.7297  -4.6764  -1.5932  -1.1353  -0.5047   0.1886   0.7402   0.8868
     0.9328   2.1286   2.5015   2.5870   2.8123   2.9437   3.0731   3.1246
     3.4252   3.5517   3.6166   3.6886   3.8617   3.9501   4.5508   4.6721
     4.9648   5.3018   5.6500   5.9557   8.0985  11.0386  11.5039  11.7520
    12.8150  13.0966  14.9041  15.2880

          k = 0.0625 0.2526-0.0673 (  4466 PWs)   bands (ev):

   -99.3092 -98.0196 -97.9186 -97.4919 -51.0174 -50.4631 -50.4135 -49.3655
   -49.3068 -49.2542 -49.2180 -49.2011 -49.1672 -48.8105 -48.7607 -48.7054
   -17.5918  -4.2963  -1.3276  -0.4784  -0.1817   0.4044   0.6757   1.1702
     1.6691   1.8467   2.1395   2.4422   2.6493   2.8390   2.9634   3.2698
     3.3637   3.4251   3.7689   4.0125   4.1281   4.3290   4.5475   4.7989
     5.0498   5.3550   5.6943   6.9773   9.5020  10.1215  11.2096  12.4502
    13.6800  14.0756  15.7243  16.2459

          k = 0.0625 0.3969-0.0673 (  4438 PWs)   bands (ev):

   -99.3064 -98.0167 -97.9157 -97.4889 -51.0100 -50.5221 -50.4303 -49.3690
   -49.3566 -49.2749 -49.2683 -49.2004 -49.1840 -48.8696 -48.7777 -48.6997
   -17.4229  -3.7867  -1.4469  -0.8902   0.3902   0.4577   0.7558   1.0991
     1.4855   1.7573   1.9880   2.5876   2.7225   3.0010   3.2814   3.3928
     3.7120   4.0231   4.3426   4.5565   4.7535   4.9889   5.2371   5.5108
     5.6598   5.8526   6.1577   8.0817   9.2130  10.7789  10.8873  13.4620
    14.3077  14.9853  15.2617  15.9253

          k = 0.0625 0.5413-0.0673 (  4394 PWs)   bands (ev):

   -99.3047 -98.0150 -97.9140 -97.4872 -51.0058 -50.5553 -50.4398 -49.4020
   -49.3598 -49.2959 -49.2812 -49.1999 -49.1935 -48.9027 -48.7873 -48.6965
   -17.3239  -3.4108  -1.8730  -0.8967   0.2692   0.4016   0.6057   1.0152
     1.2630   1.5057   1.8104   2.4915   2.6183   3.0752   3.4574   3.8681
     4.3324   4.5311   4.7683   5.3597   5.5186   5.5957   5.8568   6.1024
     6.3351   6.9008   7.8987   8.5670   9.7159  10.4562  10.6945  11.4662
    12.2387  13.4436  14.6754  16.3748

          k = 0.0625-0.4691-0.0673 (  4416 PWs)   bands (ev):

   -99.3053 -98.0156 -97.9146 -97.4878 -51.0073 -50.5437 -50.4364 -49.3902
   -49.3579 -49.2889 -49.2774 -49.2000 -49.1901 -48.8911 -48.7840 -48.6977
   -17.3590  -3.5573  -1.6973  -0.9091   0.3198   0.4366   0.6802   1.0424
     1.3442   1.5945   1.8754   2.5285   2.6744   3.1099   3.4041   3.7291
     4.0242   4.3714   4.6047   5.0290   5.2853   5.4485   5.5733   5.8086
     5.9239   6.4051   6.9822   8.2869   9.4467  10.7493  11.4082  11.8918
    12.9734  14.4933  15.3192  16.1681

          k = 0.0625-0.3248-0.0673 (  4460 PWs)   bands (ev):

   -99.3077 -98.0181 -97.9171 -97.4903 -51.0135 -50.4938 -50.4222 -49.3612
   -49.3380 -49.2638 -49.2460 -49.2009 -49.1759 -48.8413 -48.7695 -48.7024
   -17.5050  -4.0448  -1.3062  -0.7115   0.1927   0.5411   0.7048   1.2039
     1.6504   1.9126   2.1150   2.3709   2.7253   2.8089   2.9951   3.3454
     3.5510   3.7037   3.8863   4.1279   4.4754   4.5419   4.8709   5.1024
     5.3974   5.5451   5.7528   7.5319   9.5876  10.1772  11.0366  13.0388
    14.3620  14.8196  16.1627  16.3053

          k = 0.0625-0.1804-0.0673 (  4490 PWs)   bands (ev):

   -99.3106 -98.0211 -97.9200 -97.4933 -51.0210 -50.4346 -50.4054 -49.3706
   -49.2774 -49.2455 -49.2054 -49.1873 -49.1591 -48.7818 -48.7525 -48.7082
   -17.6705  -4.5146  -1.4267  -0.8454  -0.1612   0.1518   0.7929   0.8608
     1.2991   1.9671   2.3231   2.6319   2.8112   2.8722   2.9418   3.0179
     3.4653   3.5367   3.6886   3.7349   3.8840   4.1830   4.4775   4.6790
     4.8763   5.2981   5.6654   6.4407   8.7936  10.6210  11.3742  12.0264
    13.1663  13.4884  15.2504  15.6851

          k = 0.0625-0.0361-0.0673 (  4520 PWs)   bands (ev):

   -99.3122 -98.0227 -97.9217 -97.4949 -51.0252 -50.4007 -50.3960 -49.3770
   -49.2412 -49.2354 -49.2078 -49.1543 -49.1496 -48.7477 -48.7429 -48.7115
   -17.7614  -4.7629  -1.7365  -1.2424  -0.7092   0.0606   0.7227   0.8622
     0.9359   2.2343   2.3673   2.7294   2.9142   2.9171   3.1280   3.2115
     3.2761   3.5660   3.6132   3.6622   3.7820   4.1514   4.6042   4.6388
     5.0728   5.2851   5.6384   5.7301   7.6073  11.2758  11.5727  11.6265
    12.6243  12.9058  14.7178  15.0885

          k = 0.1875 0.3248-0.0673 (  4450 PWs)   bands (ev):

   -99.3068 -98.0171 -97.9161 -97.4894 -51.0111 -50.5040 -50.4370 -49.3592
   -49.3470 -49.2815 -49.2534 -49.2000 -49.1909 -48.8515 -48.7845 -48.7005
   -17.4495  -3.8763  -1.3068  -0.7614   0.2454   0.6138   1.1888   1.5049
     1.7067   1.8947   2.2065   2.2679   2.4828   2.6468   2.8448   3.0175
     3.3608   3.8105   3.8280   4.2466   4.4738   4.8176   5.0315   5.5119
     5.6787   5.9106   6.2981   8.0647   9.4791  10.5960  10.6828  13.5785
    14.8802  15.4030  16.0400  16.4158

          k = 0.1875 0.4691-0.0673 (  4428 PWs)   bands (ev):

   -99.3047 -98.0150 -97.9140 -97.4872 -51.0058 -50.5344 -50.4610 -49.3805
   -49.3535 -49.3059 -49.2795 -49.2147 -49.1985 -48.8819 -48.8086 -48.6965
   -17.3251  -3.4444  -1.5365  -0.8638  -0.1728   0.8756   1.0870   1.5133
     1.7287   1.8898   2.2327   2.3672   2.5374   2.7567   3.1382   3.3886
     3.5972   3.9029   4.2912   4.4365   4.8657   5.1804   5.5867   5.9655
     6.1237   7.3670   8.0605   8.9450   9.9737  10.2797  11.9774  12.4280
    13.2375  14.3967  15.3408  15.8793

          k = 0.1875 0.6134-0.0673 (  4432 PWs)   bands (ev):

   -99.3043 -98.0145 -97.9135 -97.4868 -51.0045 -50.5412 -50.4670 -49.3874
   -49.3537 -49.3112 -49.2853 -49.2204 -49.1983 -48.8887 -48.8147 -48.6955
   -17.2954  -3.3209  -1.6323  -0.8645  -0.2705   0.8665   0.9988   1.5124
     1.6992   1.8083   2.1635   2.3599   2.5103   2.9168   3.3195   3.4680
     3.7705   3.8838   4.4881   4.6558   5.1031   5.3315   5.5879   5.8760
     6.4540   7.6871   8.8644   9.6821   9.9871  10.5333  11.2251  11.8375
    12.8607  13.6331  14.6384  16.0456

          k = 0.1875-0.3969-0.0673 (  4450 PWs)   bands (ev):

   -99.3056 -98.0159 -97.9150 -97.4882 -51.0081 -50.5216 -50.4503 -49.3680
   -49.3537 -49.2956 -49.2684 -49.2046 -49.1987 -48.8691 -48.7978 -48.6982
   -17.3795  -3.6456  -1.4026  -0.8453   0.0103   0.8450   1.2208   1.4866
     1.7913   2.0096   2.1138   2.4113   2.4352   2.7106   2.8801   3.1307
     3.6267   3.7057   3.9810   4.3555   4.5946   5.1097   5.3580   5.7349
     5.9031   6.5960   7.1917   8.6846   9.4156  10.2762  11.3842  13.9056
    14.5885  14.9605  15.6085  15.9681

          k = 0.1875-0.2526-0.0673 (  4452 PWs)   bands (ev):

   -99.3081 -98.0184 -97.9174 -97.4907 -51.0144 -50.4836 -50.4239 -49.3618
   -49.3275 -49.2664 -49.2359 -49.2008 -49.1778 -48.8311 -48.7713 -48.7031
   -17.5241  -4.1018  -1.2913  -0.5919   0.1651   0.4836   0.8195   1.4147
     1.7424   1.8854   2.0672   2.3841   2.4586   2.7137   2.8427   3.1883
     3.3527   3.7172   3.7847   4.0442   4.3845   4.4790   4.7919   5.1030
     5.4370   5.5546   5.7033   7.4560   9.7613  10.0908  10.9357  12.9244
    14.1975  14.6578  16.1631  16.7126

          k = 0.1875-0.1083-0.0673 (  4480 PWs)   bands (ev):

   -99.3101 -98.0206 -97.9195 -97.4928 -51.0197 -50.4455 -50.4074 -49.3688
   -49.2888 -49.2473 -49.2068 -49.1964 -49.1610 -48.7928 -48.7545 -48.7072
   -17.6430  -4.4390  -1.3828  -0.6960  -0.1281   0.1533   0.7754   0.9528
     1.4326   1.9334   2.2678   2.5680   2.7930   2.8491   3.0086   3.0394
     3.4292   3.5174   3.7462   3.8564   3.8784   4.2600   4.4631   4.6364
     5.0721   5.1322   5.7447   6.6206   9.0550  10.4165  11.3542  12.1579
    13.3364  13.6839  15.4103  15.8749

          k = 0.3125 0.5413-0.0673 (  4434 PWs)   bands (ev):

   -99.3038 -98.0140 -97.9131 -97.4863 -51.0034 -50.5198 -50.5000 -49.3656
   -49.3488 -49.3450 -49.2703 -49.2506 -49.1975 -48.8675 -48.8477 -48.6946
   -17.2692  -3.2302  -1.2599  -0.9040  -0.8227   1.1829   1.3326   1.9417
     1.9698   2.0959   2.2051   2.3899   2.5475   2.8066   2.9048   3.2952
     3.8173   3.8399   4.0050   4.3644   4.7017   5.3182   5.5358   5.6932
     6.4106   8.3725   8.9526   9.9786  10.9885  11.1238  11.2771  12.6251
    12.9678  13.7100  14.3225  15.2066

          k = 0.3125 0.6856-0.0673 (  4444 PWs)   bands (ev):

   -99.3041 -98.0144 -97.9134 -97.4866 -51.0042 -50.5302 -50.4810 -49.3761
   -49.3508 -49.3260 -49.2773 -49.2339 -49.1979 -48.8778 -48.8288 -48.6953
   -17.2889  -3.3069  -1.4486  -0.8396  -0.5516   1.0359   1.2947   1.7687
     1.8432   2.0930   2.1923   2.3557   2.5843   2.7045   3.0097   3.3127
     3.7260   3.8311   4.1410   4.3513   4.7749   5.2299   5.5738   5.8816
     6.3775   7.9699   8.9127   9.4506   9.9534  11.2490  11.6886  12.3832
    13.2966  13.5465  14.6634  15.3599

          k = 0.3125-0.3248-0.0673 (  4428 PWs)   bands (ev):

   -99.3055 -98.0158 -97.9148 -97.4880 -51.0078 -50.5315 -50.4432 -49.3778
   -49.3556 -49.2886 -49.2759 -49.1999 -49.1967 -48.8789 -48.7908 -48.6980
   -17.3722  -3.6146  -1.5255  -0.8876   0.1690   0.6502   0.9042   1.2510
     1.5966   1.7427   2.1168   2.4282   2.6350   2.9070   3.2637   3.3478
     3.6524   3.9981   4.4409   4.5033   4.8752   5.2638   5.3183   5.7548
     5.8831   6.5224   7.1013   8.5160   9.3929  10.5065  11.3917  12.9113
    13.9188  14.8004  15.6704  15.9537

          k = 0.3125-0.1804-0.0673 (  4442 PWs)   bands (ev):

   -99.3071 -98.0175 -97.9165 -97.4897 -51.0120 -50.5084 -50.4234 -49.3613
   -49.3518 -49.2641 -49.2600 -49.2009 -49.1770 -48.8559 -48.7707 -48.7013
   -17.4695  -3.9360  -1.3566  -0.8358   0.2681   0.5589   0.6567   1.0914
     1.5130   1.8003   2.0249   2.6580   2.7445   2.9758   3.1828   3.4017
     3.6776   3.9427   3.9572   4.4367   4.5941   4.9036   4.9521   5.1558
     5.4480   5.6243   5.7755   7.7237   9.3629  10.4005  11.0547  13.2715
    14.6721  15.0685  15.2601  16.0561

          k = 0.4375 0.7578-0.0673 (  4420 PWs)   bands (ev):

   -99.3045 -98.0147 -97.9138 -97.4870 -51.0051 -50.5512 -50.4513 -49.3977
   -49.3574 -49.2964 -49.2902 -49.2050 -49.1991 -48.8985 -48.7989 -48.6960
   -17.3077  -3.3543  -1.8018  -0.8816   0.0430   0.6103   0.7306   1.2239
     1.4501   1.5918   2.0174   2.3303   2.5897   3.1936   3.2188   3.8075
     4.0290   4.1655   4.7164   5.1490   5.3971   5.4127   5.7379   5.9161
     6.5337   7.2711   8.6589   9.2481   9.9100  10.3134  10.5994  11.6637
    12.2582  13.7483  14.2692  16.6263

          k = 0.4375-0.2526-0.0673 (  4396 PWs)   bands (ev):

   -99.3050 -98.0153 -97.9143 -97.4876 -51.0065 -50.5526 -50.4347 -49.3992
   -49.3598 -49.2942 -49.2759 -49.2003 -49.1884 -48.8999 -48.7822 -48.6971
   -17.3419  -3.4839  -1.8310  -0.9084   0.2972   0.4120   0.5828   0.9488
     1.2303   1.4999   1.7685   2.6031   2.6104   3.0433   3.6002   3.7691
     4.4678   4.5779   4.7793   5.1152   5.5601   5.7313   5.8866   5.9047
     6.2347   6.4281   7.1964   8.1668   9.6124  10.8350  10.8765  11.6012
    12.3114  13.7919  15.2216  16.0918

          k = 0.1250 0.0000-0.0673 (  4518 PWs)   bands (ev):

   -99.3117 -98.0222 -97.9211 -97.4944 -51.0237 -50.4127 -50.3992 -49.3747
   -49.2543 -49.2389 -49.2064 -49.1662 -49.1529 -48.7598 -48.7462 -48.7103
   -17.7297  -4.6764  -1.5932  -1.1353  -0.5047   0.1886   0.7401   0.8869
     0.9328   2.1287   2.5015   2.5869   2.8122   2.9438   3.0730   3.1246
     3.4252   3.5517   3.6162   3.6887   3.8621   3.9501   4.5507   4.6721
     4.9648   5.3018   5.6499   5.9556   8.0984  11.0389  11.5048  11.7510
    12.8149  13.0966  14.9040  15.2880

          k =-0.1875 0.1804-0.0673 (  4466 PWs)   bands (ev):

   -99.3092 -98.0196 -97.9186 -97.4919 -51.0174 -50.4631 -50.4135 -49.3655
   -49.3068 -49.2542 -49.2180 -49.2011 -49.1672 -48.8105 -48.7607 -48.7054
   -17.5918  -4.2963  -1.3276  -0.4784  -0.1817   0.4044   0.6757   1.1702
     1.6691   1.8467   2.1392   2.4424   2.6492   2.8391   2.9634   3.2698
     3.3637   3.4252   3.7689   4.0124   4.1281   4.3290   4.5475   4.7989
     5.0498   5.3551   5.6943   6.9772   9.5015  10.1227  11.2093  12.4500
    13.6799  14.0755  15.7242  16.2460

          k = 0.2500 0.0722-0.0673 (  4466 PWs)   bands (ev):

   -99.3092 -98.0196 -97.9186 -97.4919 -51.0174 -50.4631 -50.4135 -49.3655
   -49.3068 -49.2542 -49.2180 -49.2011 -49.1672 -48.8105 -48.7607 -48.7054
   -17.5918  -4.2963  -1.3276  -0.4784  -0.1817   0.4044   0.6757   1.1702
     1.6691   1.8467   2.1392   2.4423   2.6491   2.8389   2.9638   3.2698
     3.3637   3.4252   3.7688   4.0127   4.1281   4.3290   4.5474   4.7989
     5.0498   5.3550   5.6943   6.9770   9.5015  10.1225  11.2102  12.4494
    13.6799  14.0754  15.7241  16.2461

          k =-0.3125 0.2526-0.0673 (  4438 PWs)   bands (ev):

   -99.3064 -98.0167 -97.9157 -97.4889 -51.0100 -50.5221 -50.4303 -49.3690
   -49.3566 -49.2749 -49.2683 -49.2004 -49.1840 -48.8696 -48.7777 -48.6997
   -17.4230  -3.7867  -1.4469  -0.8902   0.3902   0.4578   0.7559   1.0990
     1.4852   1.7573   1.9880   2.5879   2.7225   3.0008   3.2815   3.3929
     3.7119   4.0234   4.3423   4.5565   4.7534   4.9889   5.2370   5.5108
     5.6598   5.8526   6.1576   8.0812   9.2138  10.7792  10.8870  13.4613
    14.3081  14.9848  15.2619  15.9258

          k = 0.3750 0.1443-0.0673 (  4438 PWs)   bands (ev):

   -99.3064 -98.0167 -97.9157 -97.4889 -51.0100 -50.5221 -50.4303 -49.3690
   -49.3566 -49.2749 -49.2683 -49.2004 -49.1840 -48.8696 -48.7777 -48.6997
   -17.4230  -3.7867  -1.4469  -0.8902   0.3903   0.4577   0.7559   1.0989
     1.4852   1.7573   1.9880   2.5875   2.7229   3.0009   3.2815   3.3928
     3.7120   4.0231   4.3424   4.5564   4.7535   4.9890   5.2371   5.5108
     5.6597   5.8526   6.1577   8.0810   9.2137  10.7785  10.8881  13.4611
    14.3080  14.9848  15.2619  15.9257

          k =-0.4375 0.3248-0.0673 (  4394 PWs)   bands (ev):

   -99.3047 -98.0150 -97.9140 -97.4872 -51.0058 -50.5554 -50.4398 -49.4020
   -49.3598 -49.2959 -49.2812 -49.1999 -49.1934 -48.9027 -48.7873 -48.6965
   -17.3239  -3.4108  -1.8731  -0.8968   0.2693   0.4016   0.6059   1.0150
     1.2627   1.5058   1.8104   2.4917   2.6185   3.0752   3.4573   3.8679
     4.3327   4.5311   4.7684   5.3593   5.5186   5.5957   5.8568   6.1025
     6.3355   6.8999   7.8990   8.5670   9.7159  10.4579  10.6939  11.4656
    12.2381  13.4433  14.6757  16.3747

          k = 0.5000 0.2165-0.0673 (  4394 PWs)   bands (ev):

   -99.3047 -98.0150 -97.9140 -97.4872 -51.0058 -50.5554 -50.4398 -49.4020
   -49.3598 -49.2959 -49.2812 -49.1999 -49.1934 -48.9027 -48.7873 -48.6965
   -17.3239  -3.4108  -1.8731  -0.8968   0.2693   0.4016   0.6059   1.0150
     1.2627   1.5058   1.8104   2.4915   2.6186   3.0752   3.4573   3.8679
     4.3327   4.5310   4.7684   5.3593   5.5186   5.5957   5.8568   6.1024
     6.3356   6.8999   7.8989   8.5670   9.7159  10.4569  10.6952  11.4655
    12.2380  13.4431  14.6759  16.3747

          k = 0.4375-0.1804-0.0673 (  4416 PWs)   bands (ev):

   -99.3053 -98.0156 -97.9146 -97.4878 -51.0073 -50.5437 -50.4364 -49.3902
   -49.3579 -49.2889 -49.2773 -49.2000 -49.1901 -48.8911 -48.7840 -48.6977
   -17.3590  -3.5573  -1.6973  -0.9091   0.3199   0.4366   0.6804   1.0422
     1.3439   1.5946   1.8754   2.5284   2.6749   3.1099   3.4039   3.7291
     4.0245   4.3713   4.6047   5.0289   5.2852   5.4485   5.5733   5.8087
     5.9238   6.4051   6.9822   8.2864   9.4472  10.7494  11.4089  11.8914
    12.9724  14.4931  15.3194  16.1682

          k =-0.3750-0.2887-0.0673 (  4416 PWs)   bands (ev):

   -99.3053 -98.0156 -97.9146 -97.4878 -51.0073 -50.5437 -50.4364 -49.3902
   -49.3579 -49.2889 -49.2774 -49.2000 -49.1901 -48.8911 -48.7840 -48.6977
   -17.3590  -3.5573  -1.6973  -0.9091   0.3198   0.4367   0.6803   1.0423
     1.3439   1.5946   1.8754   2.5288   2.6744   3.1099   3.4040   3.7288
     4.0246   4.3716   4.6046   5.0288   5.2852   5.4484   5.5733   5.8088
     5.9239   6.4049   6.9822   8.2865   9.4474  10.7491  11.4088  11.8915
    12.9726  14.4932  15.3194  16.1681

          k = 0.3125-0.1083-0.0673 (  4460 PWs)   bands (ev):

   -99.3077 -98.0181 -97.9171 -97.4903 -51.0135 -50.4939 -50.4222 -49.3613
   -49.3380 -49.2638 -49.2460 -49.2009 -49.1759 -48.8413 -48.7695 -48.7024
   -17.5050  -4.0448  -1.3062  -0.7115   0.1927   0.5411   0.7048   1.2039
     1.6503   1.9124   2.1151   2.3709   2.7250   2.8092   2.9953   3.3455
     3.5509   3.7037   3.8863   4.1279   4.4754   4.5419   4.8709   5.1024
     5.3974   5.5450   5.7528   7.5315   9.5877  10.1776  11.0371  13.0381
    14.3620  14.8192  16.1638  16.3051

          k =-0.2500-0.2165-0.0673 (  4460 PWs)   bands (ev):

   -99.3077 -98.0181 -97.9171 -97.4903 -51.0135 -50.4938 -50.4222 -49.3613
   -49.3380 -49.2638 -49.2460 -49.2009 -49.1759 -48.8413 -48.7695 -48.7024
   -17.5050  -4.0448  -1.3062  -0.7115   0.1928   0.5411   0.7047   1.2039
     1.6503   1.9124   2.1152   2.3709   2.7254   2.8089   2.9950   3.3456
     3.5510   3.7038   3.8863   4.1279   4.4754   4.5419   4.8709   5.1024
     5.3974   5.5451   5.7527   7.5316   9.5877  10.1780  11.0363  13.0385
    14.3620  14.8194  16.1637  16.3050

          k = 0.1875-0.0361-0.0673 (  4490 PWs)   bands (ev):

   -99.3106 -98.0211 -97.9200 -97.4933 -51.0210 -50.4346 -50.4054 -49.3706
   -49.2774 -49.2455 -49.2054 -49.1873 -49.1591 -48.7818 -48.7525 -48.7082
   -17.6705  -4.5146  -1.4267  -0.8454  -0.1611   0.1518   0.7928   0.8609
     1.2991   1.9672   2.3229   2.6319   2.8113   2.8720   2.9417   3.0182
     3.4653   3.5367   3.6885   3.7348   3.8844   4.1830   4.4775   4.6789
     4.8763   5.2981   5.6654   6.4405   8.7935  10.6215  11.3750  12.0255
    13.1663  13.4883  15.2503  15.6852

          k =-0.1250-0.1443-0.0673 (  4490 PWs)   bands (ev):

   -99.3106 -98.0211 -97.9200 -97.4933 -51.0210 -50.4346 -50.4054 -49.3706
   -49.2774 -49.2455 -49.2054 -49.1873 -49.1591 -48.7818 -48.7525 -48.7082
   -17.6705  -4.5146  -1.4267  -0.8454  -0.1611   0.1518   0.7929   0.8608
     1.2991   1.9671   2.3229   2.6320   2.8112   2.8722   2.9419   3.0179
     3.4654   3.5367   3.6885   3.7349   3.8839   4.1830   4.4776   4.6791
     4.8762   5.2981   5.6654   6.4407   8.7935  10.6216  11.3739  12.0263
    13.1663  13.4884  15.2503  15.6851

          k = 0.0000-0.0722-0.0673 (  4520 PWs)   bands (ev):

   -99.3122 -98.0227 -97.9217 -97.4949 -51.0252 -50.4007 -50.3960 -49.3770
   -49.2412 -49.2354 -49.2078 -49.1543 -49.1496 -48.7477 -48.7429 -48.7115
   -17.7614  -4.7629  -1.7365  -1.2424  -0.7092   0.0606   0.7227   0.8622
     0.9359   2.2343   2.3673   2.7295   2.9142   2.9170   3.1280   3.2115
     3.2761   3.5660   3.6131   3.6624   3.7820   4.1513   4.6042   4.6388
     5.0728   5.2852   5.6384   5.7301   7.6074  11.2753  11.5734  11.6264
    12.6243  12.9058  14.7178  15.0885

          k = 0.3750 0.0000-0.0673 (  4450 PWs)   bands (ev):

   -99.3068 -98.0171 -97.9161 -97.4894 -51.0111 -50.5040 -50.4370 -49.3592
   -49.3470 -49.2815 -49.2534 -49.2000 -49.1909 -48.8515 -48.7845 -48.7005
   -17.4495  -3.8763  -1.3068  -0.7614   0.2454   0.6139   1.1887   1.5049
     1.7067   1.8947   2.2064   2.2679   2.4821   2.6475   2.8448   3.0175
     3.3608   3.8105   3.8280   4.2466   4.4737   4.8178   5.0315   5.5118
     5.6787   5.9107   6.2981   8.0642   9.4790  10.5941  10.6855  13.5779
    14.8802  15.4026  16.0407  16.4157

          k =-0.3125 0.3969-0.0673 (  4428 PWs)   bands (ev):

   -99.3047 -98.0150 -97.9140 -97.4872 -51.0058 -50.5344 -50.4610 -49.3805
   -49.3535 -49.3059 -49.2795 -49.2147 -49.1985 -48.8819 -48.8086 -48.6965
   -17.3251  -3.4444  -1.5366  -0.8638  -0.1728   0.8756   1.0869   1.5133
     1.7287   1.8898   2.2327   2.3671   2.5375   2.7568   3.1382   3.3886
     3.5971   3.9031   4.2912   4.4364   4.8657   5.1803   5.5866   5.9655
     6.1238   7.3669   8.0605   8.9449   9.9746  10.2791  11.9770  12.4290
    13.2367  14.3968  15.3401  15.8797

          k = 0.5000 0.0722-0.0673 (  4428 PWs)   bands (ev):

   -99.3047 -98.0150 -97.9140 -97.4872 -51.0058 -50.5344 -50.4610 -49.3805
   -49.3535 -49.3059 -49.2795 -49.2147 -49.1985 -48.8819 -48.8086 -48.6965
   -17.3251  -3.4444  -1.5365  -0.8638  -0.1728   0.8756   1.0869   1.5132
     1.7287   1.8898   2.2329   2.3670   2.5376   2.7568   3.1381   3.3886
     3.5974   3.9029   4.2912   4.4365   4.8657   5.1804   5.5867   5.9654
     6.1238   7.3670   8.0603   8.9449   9.9723  10.2818  11.9765  12.4292
    13.2364  14.3968  15.3404  15.8801

          k =-0.4375 0.4691-0.0673 (  4432 PWs)   bands (ev):

   -99.3043 -98.0145 -97.9135 -97.4868 -51.0045 -50.5412 -50.4670 -49.3874
   -49.3537 -49.3112 -49.2853 -49.2204 -49.1983 -48.8887 -48.8147 -48.6955
   -17.2954  -3.3209  -1.6323  -0.8645  -0.2704   0.8665   0.9987   1.5124
     1.6992   1.8083   2.1635   2.3598   2.5104   2.9169   3.3194   3.4681
     3.7706   3.8837   4.4882   4.6558   5.1031   5.3314   5.5879   5.8759
     6.4541   7.6870   8.8643   9.6820   9.9870  10.5333  11.2267  11.8367
    12.8602  13.6329  14.6385  16.0457

          k = 0.6250 0.1443-0.0673 (  4432 PWs)   bands (ev):

   -99.3043 -98.0145 -97.9135 -97.4868 -51.0045 -50.5412 -50.4670 -49.3874
   -49.3537 -49.3112 -49.2853 -49.2204 -49.1983 -48.8887 -48.8147 -48.6955
   -17.2954  -3.3209  -1.6323  -0.8645  -0.2705   0.8665   0.9987   1.5124
     1.6992   1.8083   2.1635   2.3598   2.5104   2.9169   3.3195   3.4680
     3.7703   3.8840   4.4881   4.6558   5.1031   5.3314   5.5879   5.8760
     6.4540   7.6871   8.8643   9.6822   9.9869  10.5333  11.2263  11.8368
    12.8601  13.6337  14.6373  16.0464

          k = 0.4375-0.0361-0.0673 (  4450 PWs)   bands (ev):

   -99.3056 -98.0159 -97.9150 -97.4882 -51.0081 -50.5216 -50.4502 -49.3680
   -49.3537 -49.2956 -49.2684 -49.2046 -49.1987 -48.8691 -48.7978 -48.6982
   -17.3795  -3.6456  -1.4026  -0.8453   0.0103   0.8451   1.2207   1.4866
     1.7913   2.0097   2.1138   2.4111   2.4354   2.7108   2.8801   3.1307
     3.6268   3.7058   3.9810   4.3554   4.5946   5.1097   5.3581   5.7347
     5.9031   6.5960   7.1917   8.6840   9.4156  10.2772  11.3840  13.9051
    14.5888  14.9601  15.6087  15.9681

          k =-0.2500-0.3608-0.0673 (  4450 PWs)   bands (ev):

   -99.3056 -98.0159 -97.9150 -97.4882 -51.0081 -50.5216 -50.4503 -49.3680
   -49.3537 -49.2956 -49.2684 -49.2046 -49.1987 -48.8691 -48.7978 -48.6982
   -17.3795  -3.6456  -1.4026  -0.8453   0.0103   0.8451   1.2207   1.4866
     1.7912   2.0097   2.1137   2.4113   2.4354   2.7105   2.8801   3.1308
     3.6267   3.7057   3.9810   4.3554   4.5946   5.1097   5.3579   5.7350
     5.9031   6.5959   7.1917   8.6843   9.4162  10.2759  11.3842  13.9052
    14.5894  14.9597  15.6084  15.9680

          k = 0.3125 0.0361-0.0673 (  4452 PWs)   bands (ev):

   -99.3081 -98.0184 -97.9174 -97.4907 -51.0144 -50.4836 -50.4239 -49.3618
   -49.3275 -49.2664 -49.2359 -49.2008 -49.1778 -48.8311 -48.7713 -48.7031
   -17.5241  -4.1018  -1.2912  -0.5919   0.1651   0.4837   0.8195   1.4147
     1.7424   1.8855   2.0672   2.3838   2.4586   2.7135   2.8432   3.1883
     3.3527   3.7169   3.7848   4.0444   4.3845   4.4790   4.7920   5.1030
     5.4370   5.5545   5.7034   7.4557   9.7614  10.0901  10.9372  12.9237
    14.1975  14.6576  16.1630  16.7130

          k =-0.1250-0.2887-0.0673 (  4452 PWs)   bands (ev):

   -99.3081 -98.0184 -97.9174 -97.4907 -51.0144 -50.4836 -50.4240 -49.3618
   -49.3275 -49.2664 -49.2359 -49.2008 -49.1778 -48.8311 -48.7713 -48.7031
   -17.5241  -4.1018  -1.2913  -0.5918   0.1651   0.4836   0.8195   1.4147
     1.7423   1.8857   2.0672   2.3840   2.4587   2.7137   2.8427   3.1883
     3.3527   3.7170   3.7848   4.0442   4.3845   4.4791   4.7919   5.1030
     5.4370   5.5546   5.7034   7.4561   9.7615  10.0901  10.9360  12.9245
    14.1975  14.6578  16.1632  16.7122

          k = 0.0000-0.2165-0.0673 (  4480 PWs)   bands (ev):

   -99.3101 -98.0206 -97.9195 -97.4928 -51.0197 -50.4455 -50.4074 -49.3688
   -49.2888 -49.2473 -49.2068 -49.1964 -49.1610 -48.7928 -48.7545 -48.7072
   -17.6430  -4.4390  -1.3828  -0.6960  -0.1281   0.1533   0.7754   0.9527
     1.4326   1.9333   2.2681   2.5678   2.7931   2.8491   3.0085   3.0393
     3.4290   3.5174   3.7462   3.8564   3.8784   4.2600   4.4630   4.6364
     5.0721   5.1323   5.7447   6.6208   9.0552  10.4155  11.3543  12.1584
    13.3365  13.6839  15.4104  15.8748

          k = 0.6250 0.0000-0.0673 (  4434 PWs)   bands (ev):

   -99.3038 -98.0140 -97.9131 -97.4863 -51.0034 -50.5199 -50.5000 -49.3656
   -49.3488 -49.3450 -49.2703 -49.2506 -49.1975 -48.8675 -48.8477 -48.6946
   -17.2692  -3.2302  -1.2599  -0.9041  -0.8226   1.1829   1.3325   1.9418
     1.9697   2.0960   2.2051   2.3899   2.5475   2.8065   2.9049   3.2951
     3.8173   3.8400   4.0050   4.3644   4.7017   5.3182   5.5358   5.6931
     6.4106   8.3723   8.9527   9.9786  10.9892  11.1235  11.2764  12.6250
    12.9688  13.7094  14.3225  15.2060

          k =-0.4375 0.6134-0.0673 (  4444 PWs)   bands (ev):

   -99.3041 -98.0144 -97.9134 -97.4866 -51.0042 -50.5302 -50.4810 -49.3761
   -49.3508 -49.3260 -49.2773 -49.2339 -49.1979 -48.8778 -48.8287 -48.6953
   -17.2889  -3.3069  -1.4486  -0.8396  -0.5516   1.0359   1.2946   1.7685
     1.8432   2.0934   2.1924   2.3557   2.5842   2.7044   3.0097   3.3127
     3.7261   3.8310   4.1410   4.3513   4.7749   5.2299   5.5738   5.8816
     6.3776   7.9698   8.9127   9.4503   9.9537  11.2492  11.6887  12.3826
    13.2969  13.5468  14.6640  15.3590

          k = 0.7500 0.0722-0.0673 (  4444 PWs)   bands (ev):

   -99.3041 -98.0144 -97.9134 -97.4866 -51.0042 -50.5302 -50.4810 -49.3761
   -49.3508 -49.3260 -49.2773 -49.2339 -49.1979 -48.8778 -48.8288 -48.6953
   -17.2889  -3.3069  -1.4486  -0.8396  -0.5516   1.0359   1.2948   1.7685
     1.8432   2.0931   2.1923   2.3558   2.5844   2.7043   3.0097   3.3128
     3.7260   3.8310   4.1410   4.3513   4.7749   5.2300   5.5739   5.8816
     6.3775   7.9699   8.9128   9.4505   9.9535  11.2487  11.6892  12.3823
    13.2965  13.5473  14.6637  15.3596

          k = 0.4375 0.1083-0.0673 (  4428 PWs)   bands (ev):

   -99.3055 -98.0158 -97.9148 -97.4880 -51.0078 -50.5315 -50.4432 -49.3778
   -49.3556 -49.2886 -49.2759 -49.1999 -49.1967 -48.8789 -48.7908 -48.6980
   -17.3722  -3.6146  -1.5255  -0.8876   0.1690   0.6502   0.9042   1.2509
     1.5966   1.7426   2.1168   2.4280   2.6353   2.9071   3.2637   3.3477
     3.6526   3.9977   4.4409   4.5034   4.8752   5.2637   5.3186   5.7546
     5.8831   6.5225   7.1012   8.5158   9.3924  10.5075  11.3916  12.9114
    13.9186  14.8001  15.6708  15.9538

          k =-0.1250-0.4330-0.0673 (  4428 PWs)   bands (ev):

   -99.3055 -98.0158 -97.9148 -97.4880 -51.0078 -50.5315 -50.4433 -49.3778
   -49.3556 -49.2886 -49.2759 -49.1999 -49.1967 -48.8789 -48.7908 -48.6980
   -17.3722  -3.6146  -1.5255  -0.8876   0.1690   0.6501   0.9041   1.2511
     1.5968   1.7426   2.1169   2.4280   2.6349   2.9071   3.2636   3.3478
     3.6525   3.9978   4.4410   4.5034   4.8752   5.2638   5.3185   5.7546
     5.8831   6.5225   7.1013   8.5165   9.3919  10.5069  11.3915  12.9114
    13.9197  14.7997  15.6709  15.9539

          k = 0.0000-0.3608-0.0673 (  4442 PWs)   bands (ev):

   -99.3071 -98.0175 -97.9165 -97.4897 -51.0120 -50.5084 -50.4234 -49.3613
   -49.3518 -49.2641 -49.2600 -49.2009 -49.1770 -48.8559 -48.7707 -48.7013
   -17.4695  -3.9360  -1.3566  -0.8357   0.2680   0.5589   0.6566   1.0915
     1.5132   1.8004   2.0249   2.6577   2.7445   2.9760   3.1826   3.4018
     3.6776   3.9427   3.9572   4.4367   4.5941   4.9036   4.9521   5.1558
     5.4480   5.6244   5.7755   7.7242   9.3623  10.4001  11.0547  13.2722
    14.6722  15.0689  15.2596  16.0562

          k = 0.8750 0.0000-0.0673 (  4420 PWs)   bands (ev):

   -99.3045 -98.0147 -97.9138 -97.4870 -51.0051 -50.5511 -50.4513 -49.3977
   -49.3574 -49.2964 -49.2902 -49.2050 -49.1991 -48.8985 -48.7989 -48.6960
   -17.3077  -3.3543  -1.8018  -0.8816   0.0430   0.6103   0.7306   1.2240
     1.4503   1.5916   2.0175   2.3302   2.5895   3.1936   3.2188   3.8075
     4.0289   4.1656   4.7163   5.1490   5.3971   5.4130   5.7379   5.9161
     6.5335   7.2714   8.6590   9.2481   9.9100  10.3133  10.5982  11.6641
    12.2590  13.7488  14.2688  16.6263

          k = 0.0000-0.5052-0.0673 (  4396 PWs)   bands (ev):

   -99.3050 -98.0153 -97.9143 -97.4876 -51.0065 -50.5526 -50.4347 -49.3992
   -49.3598 -49.2942 -49.2759 -49.2003 -49.1884 -48.8999 -48.7822 -48.6971
   -17.3419  -3.4839  -1.8310  -0.9083   0.2972   0.4120   0.5825   0.9489
     1.2306   1.4998   1.7686   2.6028   2.6104   3.0433   3.6002   3.7694
     4.4672   4.5779   4.7793   5.1158   5.5601   5.7313   5.8866   5.9042
     6.2347   6.4288   7.1962   8.1669   9.6121  10.8352  10.8756  11.6016
    12.3122  13.7923  15.2211  16.0919

     the Fermi energy is     7.8058 ev

!    total energy              =   -1158.81851714 Ry
     Harris-Foulkes estimate   =   -1158.81851748 Ry
     estimated scf accuracy    <       0.00000043 Ry

     The total energy is the sum of the following terms:

     one-electron contribution =   -6251.40443449 Ry
     hartree contribution      =    3130.48611856 Ry
     xc contribution           =    -113.50955265 Ry
     ewald contribution        =    2091.32362504 Ry
     one-center paw contrib.   =     -15.71363248 Ry
     smearing contrib. (-TS)   =      -0.00064112 Ry

     convergence has been achieved in  13 iterations

     Forces acting on atoms (Ry/au):


     negative rho (up, down):  1.449E-04 0.000E+00
     atom    1 type  1   force =     0.00000000    0.00000003   -0.02134914
     atom    2 type  1   force =     0.00000000   -0.00000221    0.00024055
     atom    3 type  1   force =     0.00000000   -0.00001483    0.00857277
     atom    4 type  1   force =     0.00000000   -0.00009506   -0.16088074
     atom    5 type  2   force =     0.00000000   -0.00003062    0.04493672
     atom    6 type  3   force =     0.00000000    0.00014269    0.12847985

     Total force =     0.210909     Total SCF correction =     0.003206

     BFGS Geometry Optimization

     number of scf cycles    =   1
     number of bfgs steps    =   0

     energy   new            =   -1158.8185171404 Ry

     new trust radius        =       0.1608807691 bohr
     new conv_thr            =       0.0000010000 Ry


ATOMIC_POSITIONS (alat)
Au       0.000000000   0.000000000   0.000000000    0   0   0
Au       0.500000000   0.288675000   0.816497000    0   0   0
Au       0.000000000   0.577347279   1.634566274
Au       0.000000000  -0.000017445   2.419965181
C        0.000000000  -0.000005620   3.081980783
O        0.000001000   0.001026186   3.488421610



     Writing output data file CO_Au_top.save
     Check: negative starting charge=   -0.000174
     NEW-OLD atomic charge density approx. for the potential

     Check: negative/imaginary core charge=   -0.000003    0.000000
     Check: negative starting charge=   -0.000184

     negative rho (up, down):  1.115E-04 0.000E+00

     total cpu time spent up to now is     2655.8 secs

     per-process dynamical memory:   343.4 Mb

     Self-consistent Calculation

     iteration #  1     ecut=    40.00 Ry     beta=0.70
     Davidson diagonalization with overlap
     ethr =  1.00E-06,  avg # of iterations =  5.0

     negative rho (up, down):  1.293E-04 0.000E+00

     total cpu time spent up to now is     2990.8 secs

     total energy              =   -1158.83036376 Ry
     Harris-Foulkes estimate   =   -1158.81508797 Ry
     estimated scf accuracy    <       0.01729403 Ry

     iteration #  2     ecut=    40.00 Ry     beta=0.70
     Davidson diagonalization with overlap
     ethr =  2.01E-05,  avg # of iterations =  3.8

     negative rho (up, down):  1.288E-04 0.000E+00

     total cpu time spent up to now is     3202.5 secs

     total energy              =   -1158.78201229 Ry
     Harris-Foulkes estimate   =   -1158.88705186 Ry
     estimated scf accuracy    <       0.87905146 Ry

     iteration #  3     ecut=    40.00 Ry     beta=0.70
     Davidson diagonalization with overlap
     ethr =  2.01E-05,  avg # of iterations =  5.1

     negative rho (up, down):  1.324E-04 0.000E+00

     total cpu time spent up to now is     3399.7 secs

     total energy              =   -1158.82535738 Ry
     Harris-Foulkes estimate   =   -1158.85531199 Ry
     estimated scf accuracy    <       0.28262634 Ry

     iteration #  4     ecut=    40.00 Ry     beta=0.70
     Davidson diagonalization with overlap
     ethr =  2.01E-05,  avg # of iterations =  3.5

     negative rho (up, down):  1.338E-04 0.000E+00

     total cpu time spent up to now is     3584.1 secs

     total energy              =   -1158.83899678 Ry
     Harris-Foulkes estimate   =   -1158.84147633 Ry
     estimated scf accuracy    <       0.00749447 Ry

     iteration #  5     ecut=    40.00 Ry     beta=0.70
     Davidson diagonalization with overlap
     ethr =  8.71E-06,  avg # of iterations =  3.4

     negative rho (up, down):  1.374E-04 0.000E+00

     total cpu time spent up to now is     3751.2 secs

     total energy              =   -1158.83910624 Ry
     Harris-Foulkes estimate   =   -1158.84149504 Ry
     estimated scf accuracy    <       0.01162920 Ry

     iteration #  6     ecut=    40.00 Ry     beta=0.70
     Davidson diagonalization with overlap
     ethr =  8.71E-06,  avg # of iterations =  3.3

     negative rho (up, down):  1.370E-04 0.000E+00

     total cpu time spent up to now is     3915.4 secs

     total energy              =   -1158.84003195 Ry
     Harris-Foulkes estimate   =   -1158.84110032 Ry
     estimated scf accuracy    <       0.00562933 Ry

     iteration #  7     ecut=    40.00 Ry     beta=0.70
     Davidson diagonalization with overlap
     ethr =  6.55E-06,  avg # of iterations =  2.4

     negative rho (up, down):  1.363E-04 0.000E+00

     total cpu time spent up to now is     4065.9 secs

     total energy              =   -1158.84050534 Ry
     Harris-Foulkes estimate   =   -1158.84057609 Ry
     estimated scf accuracy    <       0.00023068 Ry

     iteration #  8     ecut=    40.00 Ry     beta=0.70
     Davidson diagonalization with overlap
     ethr =  2.68E-07,  avg # of iterations =  2.1

     negative rho (up, down):  1.366E-04 0.000E+00

     total cpu time spent up to now is     4220.1 secs

     total energy              =   -1158.84053842 Ry
     Harris-Foulkes estimate   =   -1158.84054921 Ry
     estimated scf accuracy    <       0.00003440 Ry

     iteration #  9     ecut=    40.00 Ry     beta=0.70
     Davidson diagonalization with overlap
     ethr =  4.00E-08,  avg # of iterations =  2.0

     negative rho (up, down):  1.366E-04 0.000E+00

     total cpu time spent up to now is     4375.5 secs

     total energy              =   -1158.84054283 Ry
     Harris-Foulkes estimate   =   -1158.84054373 Ry
     estimated scf accuracy    <       0.00000208 Ry

     iteration # 10     ecut=    40.00 Ry     beta=0.70
     Davidson diagonalization with overlap
     ethr =  2.42E-09,  avg # of iterations =  2.0

     negative rho (up, down):  1.367E-04 0.000E+00

     total cpu time spent up to now is     4552.0 secs

     End of self-consistent calculation

          k = 0.0625 0.1083-0.0673 (  4518 PWs)   bands (ev):

   -99.0550 -98.1515 -98.0446 -97.6192 -50.6463 -50.1915 -50.1778 -49.5082
   -49.3874 -49.3724 -49.3314 -49.2901 -49.2767 -48.8842 -48.8707 -48.8343
   -16.9295  -4.2496  -1.6374  -0.9259  -0.3698   0.1637   0.8095   1.3485
     1.5929   2.2167   2.5601   2.6406   2.6992   2.9396   2.9768   3.0889
     3.3141   3.4490   3.6193   3.7177   3.8345   3.8502   4.4745   4.5792
     4.8750   5.2013   5.5401   5.8731   7.9890  10.7600  11.2165  11.5223
    12.8538  13.0889  14.8367  15.2975

          k = 0.0625 0.2526-0.0673 (  4466 PWs)   bands (ev):

   -99.0526 -98.1489 -98.0422 -97.6167 -50.6395 -50.2427 -50.1922 -49.4996
   -49.4398 -49.3875 -49.3421 -49.3258 -49.2911 -48.9349 -48.8851 -48.8293
   -16.7837  -3.8271  -1.0315  -0.4403   0.3525   0.4044   1.1385   1.3813
     1.5627   1.8339   2.2490   2.3636   2.5421   2.8421   2.9814   3.2342
     3.3249   3.4207   3.6880   3.9637   4.0248   4.2371   4.4774   4.7183
     4.9546   5.2817   5.5836   6.8866   9.3582   9.8164  10.9197  12.2818
    13.7671  14.0306  15.6565  16.2281

          k = 0.0625 0.3969-0.0673 (  4438 PWs)   bands (ev):

   -99.0497 -98.1460 -98.0392 -97.6138 -50.6315 -50.3026 -50.2092 -49.5020
   -49.4905 -49.4058 -49.3957 -49.3243 -49.3079 -48.9940 -48.9022 -48.8237
   -16.6048  -3.2666  -0.9234  -0.4236   0.4167   0.6951   1.0284   1.1542
     1.4035   1.6823   1.9385   2.5693   2.7845   2.9598   3.2170   3.2936
     3.6767   3.9720   4.3366   4.4538   4.7771   4.9050   5.1361   5.4129
     5.5492   5.7329   6.0487   7.9514   8.8687  10.5775  10.6717  13.3182
    14.2189  14.9125  15.3695  15.8829

          k = 0.0625 0.5413-0.0673 (  4394 PWs)   bands (ev):

   -99.0480 -98.1443 -98.0376 -97.6121 -50.6270 -50.3362 -50.2188 -49.5347
   -49.4923 -49.4233 -49.4143 -49.3234 -49.3174 -49.0271 -48.9118 -48.8205
   -16.4996  -2.8632  -1.2332  -0.5180   0.4156   0.5302   0.8978   1.0331
     1.1806   1.4462   1.7477   2.5004   2.5993   2.9771   3.4298   3.8231
     4.2266   4.5259   4.7879   5.2759   5.4143   5.4752   5.7344   5.9718
     6.2430   6.7987   7.8004   8.4499   9.5738  10.1247  10.4134  11.3434
    12.1764  13.4056  14.6242  16.2729

          k = 0.0625-0.4691-0.0673 (  4416 PWs)   bands (ev):

   -99.0486 -98.1449 -98.0381 -97.6127 -50.6285 -50.3244 -50.2154 -49.5230
   -49.4912 -49.4158 -49.4100 -49.3237 -49.3141 -49.0155 -48.9084 -48.8216
   -16.5369  -3.0186  -1.0847  -0.5093   0.4434   0.6033   0.9411   1.0752
     1.2603   1.5299   1.8170   2.5261   2.6756   3.0194   3.3676   3.6876
     3.9542   4.3409   4.5797   4.9807   5.2224   5.3376   5.4645   5.7577
     5.8181   6.2641   6.8526   8.1114   9.1843  10.4673  11.2963  11.7220
    12.8963  14.3929  15.2910  16.2470

          k = 0.0625-0.3248-0.0673 (  4460 PWs)   bands (ev):

   -99.0511 -98.1474 -98.0406 -97.6152 -50.6353 -50.2739 -50.2010 -49.4955
   -49.4709 -49.3968 -49.3706 -49.3252 -49.2998 -48.9657 -48.8940 -48.8264
   -16.6918  -3.5494  -0.9077  -0.2422   0.2511   0.6769   1.1453   1.2617
     1.5830   1.8125   2.1012   2.4239   2.6607   2.8400   2.9416   3.2559
     3.4544   3.7136   3.8863   4.0574   4.4073   4.4672   4.8039   4.9987
     5.2783   5.4597   5.6551   7.4232   9.2363  10.0472  10.7475  12.8997
    14.4635  14.7715  16.0453  16.2705

          k = 0.0625-0.1804-0.0673 (  4490 PWs)   bands (ev):

   -99.0540 -98.1504 -98.0436 -97.6181 -50.6434 -50.2137 -50.1840 -49.5043
   -49.4104 -49.3789 -49.3302 -49.3114 -49.2829 -48.9063 -48.8770 -48.8321
   -16.8669  -4.0694  -1.3126  -0.7452  -0.0337   0.4237   1.1012   1.1799
     1.4997   2.0293   2.3848   2.5003   2.8055   2.8600   2.9577   3.0670
     3.3682   3.4181   3.5946   3.6873   3.8933   4.0748   4.3993   4.5955
     4.7975   5.2133   5.5511   6.3616   8.6775  10.3246  11.0852  11.8254
    13.2291  13.4580  15.1778  15.6802

          k = 0.0625-0.0361-0.0673 (  4520 PWs)   bands (ev):

   -99.0556 -98.1521 -98.0452 -97.6198 -50.6479 -50.1793 -50.1745 -49.5103
   -49.3744 -49.3689 -49.3327 -49.2782 -49.2734 -48.8721 -48.8674 -48.8354
   -16.9629  -4.3461  -1.8300  -1.0329  -0.5264  -0.0216   0.6001   1.5461
     1.6419   2.3353   2.4759   2.7121   2.8155   2.8602   3.0153   3.1546
     3.1658   3.5293   3.6180   3.7461   3.7607   4.0508   4.5119   4.5436
     4.9865   5.1902   5.5407   5.6119   7.4991  11.0114  11.2861  11.3715
    12.6555  12.9120  14.6585  15.1054

          k = 0.1875 0.3248-0.0673 (  4450 PWs)   bands (ev):

   -99.0501 -98.1464 -98.0397 -97.6142 -50.6327 -50.2841 -50.2161 -49.4934
   -49.4801 -49.4138 -49.3787 -49.3241 -49.3148 -48.9759 -48.9089 -48.8245
   -16.6330  -3.3636  -0.8621  -0.2196   0.5515   0.9334   1.1186   1.4964
     1.7320   1.9666   2.0795   2.1684   2.4009   2.6917   2.8054   2.9325
     3.2400   3.7079   3.8376   4.1853   4.4085   4.8875   4.9229   5.4253
     5.5697   5.7889   6.1912   7.9453   9.1261  10.3035  10.5481  13.4604
    14.9940  15.3484  15.8971  16.3155

          k = 0.1875 0.4691-0.0673 (  4428 PWs)   bands (ev):

   -99.0480 -98.1443 -98.0376 -97.6121 -50.6269 -50.3150 -50.2404 -49.5134
   -49.4874 -49.4384 -49.4058 -49.3388 -49.3222 -49.0064 -48.9331 -48.8204
   -16.5010  -2.8947  -0.9256  -0.4333   0.5088   0.8433   1.0485   1.4351
     1.6893   1.7931   2.2323   2.3675   2.4670   2.7685   3.0755   3.2972
     3.5335   3.8557   4.1930   4.3576   4.7773   5.0729   5.5089   5.8489
     6.1037   7.2320   7.9235   8.7286   9.7029  10.0858  11.8719  12.2795
    13.1360  14.2917  15.2622  15.7907

          k = 0.1875 0.6134-0.0673 (  4432 PWs)   bands (ev):

   -99.0476 -98.1438 -98.0371 -97.6116 -50.6256 -50.3218 -50.2465 -49.5202
   -49.4873 -49.4440 -49.4118 -49.3445 -49.3218 -49.0131 -48.9391 -48.8195
   -16.4694  -2.7635  -0.9860  -0.4628   0.4076   0.8395   0.9734   1.4239
     1.6547   1.7154   2.2387   2.2973   2.3908   2.9298   3.2514   3.4374
     3.6691   3.8487   4.4310   4.5415   4.9879   5.2624   5.4808   5.7596
     6.3390   7.5596   8.7386   9.5012   9.7600  10.3761  11.0278  11.7082
    12.7670  13.5586  14.5622  15.9474

          k = 0.1875-0.3969-0.0673 (  4450 PWs)   bands (ev):

   -99.0489 -98.1452 -98.0385 -97.6130 -50.6294 -50.3020 -50.2295 -49.5010
   -49.4878 -49.4279 -49.3944 -49.3285 -49.3227 -48.9935 -48.9223 -48.8222
   -16.5588  -3.1117  -0.8673  -0.3532   0.6954   0.7876   1.1595   1.4409
     1.7561   1.9336   2.1470   2.3204   2.5280   2.6460   2.7850   3.0392
     3.5284   3.6466   3.9433   4.2474   4.5422   4.9904   5.3690   5.7039
     5.8032   6.4588   7.0665   8.5127   9.1216   9.9863  11.2631  13.7798
    14.4842  14.8495  15.6138  15.9938

          k = 0.1875-0.2526-0.0673 (  4452 PWs)   bands (ev):

   -99.0514 -98.1477 -98.0410 -97.6155 -50.6362 -50.2635 -50.2028 -49.4960
   -49.4604 -49.3993 -49.3605 -49.3252 -49.3017 -48.9555 -48.8957 -48.8270
   -16.7120  -3.6120  -0.9165  -0.1788   0.2881   0.7824   1.1829   1.3943
     1.7078   1.8510   2.1193   2.2690   2.3522   2.6915   2.9076   3.0892
     3.2447   3.6585   3.8421   3.9829   4.3118   4.4376   4.7262   4.9919
     5.3147   5.4460   5.6315   7.3506   9.4176   9.9597  10.6441  12.7813
    14.2990  14.6079  16.0962  16.6763

          k = 0.1875-0.1083-0.0673 (  4480 PWs)   bands (ev):

   -99.0535 -98.1499 -98.0431 -97.6177 -50.6420 -50.2248 -50.1860 -49.5026
   -49.4218 -49.3808 -49.3312 -49.3207 -49.2848 -48.9173 -48.8789 -48.8311
   -16.8379  -3.9854  -1.1935  -0.6536   0.1097   0.4408   1.0430   1.3165
     1.4811   1.9512   2.3583   2.4851   2.7019   2.8926   2.9731   3.1474
     3.3354   3.4141   3.6785   3.7790   3.8127   4.1743   4.3799   4.5614
     4.9906   5.0595   5.6285   6.5396   8.9335  10.1116  11.0650  11.9692
    13.4091  13.6471  15.3391  15.8656

          k = 0.3125 0.5413-0.0673 (  4434 PWs)   bands (ev):

   -99.0471 -98.1433 -98.0366 -97.6112 -50.6243 -50.3002 -50.2800 -49.4984
   -49.4833 -49.4779 -49.3951 -49.3754 -49.3210 -48.9920 -48.9721 -48.8185
   -16.4416  -2.6645  -0.6068  -0.4072  -0.2339   1.1514   1.2584   1.8276
     1.8806   2.1759   2.2852   2.3705   2.5343   2.6677   2.8086   3.1695
     3.6977   3.8787   3.9561   4.2288   4.5958   5.2614   5.4216   5.5712
     6.2745   8.1790   8.7101   9.8397  10.8537  10.9996  11.1624  12.4602
    12.8423  13.5831  14.2352  15.1169

          k = 0.3125 0.6856-0.0673 (  4444 PWs)   bands (ev):

   -99.0474 -98.1437 -98.0369 -97.6115 -50.6252 -50.3107 -50.2607 -49.5090
   -49.4850 -49.4588 -49.4030 -49.3582 -49.3214 -49.0022 -48.9532 -48.8192
   -16.4625  -2.7468  -0.8144  -0.4154   0.1244   1.0126   1.2128   1.6948
     1.7782   2.1162   2.2170   2.3094   2.5209   2.6631   2.9637   3.1768
     3.6366   3.8481   4.0454   4.2474   4.6700   5.1448   5.4822   5.7628
     6.2794   7.8200   8.7578   9.1910   9.7807  11.1427  11.5273  12.2495
    13.1653  13.4641  14.5710  15.2350

          k = 0.3125-0.3248-0.0673 (  4428 PWs)   bands (ev):

   -99.0488 -98.1451 -98.0384 -97.6129 -50.6291 -50.3120 -50.2223 -49.5107
   -49.4894 -49.4203 -49.4030 -49.3236 -49.3207 -49.0034 -48.9152 -48.8220
   -16.5510  -3.0790  -0.9482  -0.4446   0.6245   0.8215   0.8945   1.2006
     1.5090   1.6916   2.0310   2.4352   2.6616   2.8902   3.1784   3.2853
     3.5981   3.9342   4.3374   4.4499   4.7915   5.1521   5.3166   5.7128
     5.7881   6.3830   6.9734   8.3308   9.1204  10.2199  11.2755  12.7611
    13.8316  14.7049  15.6200  16.0497

          k = 0.3125-0.1804-0.0673 (  4442 PWs)   bands (ev):

   -99.0505 -98.1468 -98.0400 -97.6146 -50.6337 -50.2887 -50.2022 -49.4953
   -49.4848 -49.3975 -49.3845 -49.3250 -49.3010 -48.9803 -48.8952 -48.8252
   -16.6542  -3.4300  -0.9040  -0.3462   0.2836   0.6249   1.0345   1.2616
     1.4394   1.7034   1.9996   2.6599   2.8227   2.9046   3.1199   3.2965
     3.6631   3.8699   4.0443   4.3282   4.5371   4.8062   4.8637   5.0550
     5.3261   5.5556   5.6614   7.6071   9.0092  10.2681  10.7675  13.1366
    14.7463  15.0292  15.1704  16.0196

          k = 0.4375 0.7578-0.0673 (  4420 PWs)   bands (ev):

   -99.0478 -98.1440 -98.0373 -97.6118 -50.6262 -50.3320 -50.2305 -49.5304
   -49.4903 -49.4281 -49.4188 -49.3290 -49.3226 -49.0230 -48.9234 -48.8199
   -16.4824  -2.8014  -1.1559  -0.4947   0.6018   0.6707   0.7580   1.1489
     1.3581   1.5490   1.9266   2.4136   2.4895   3.1024   3.2122   3.8231
     3.8873   4.1587   4.6787   5.0203   5.2716   5.3639   5.6174   5.7955
     6.3951   7.1960   8.5675   9.1349   9.7838  10.0260  10.2847  11.5266
    12.1782  13.7567  14.1659  16.4817

          k = 0.4375-0.2526-0.0673 (  4396 PWs)   bands (ev):

   -99.0483 -98.1446 -98.0379 -97.6124 -50.6278 -50.3335 -50.2136 -49.5320
   -49.4925 -49.4212 -49.4093 -49.3238 -49.3123 -49.0244 -48.9067 -48.8211
   -16.5188  -2.9412  -1.2009  -0.5278   0.3559   0.5002   0.8637   1.1117
     1.1514   1.4261   1.7230   2.5396   2.6787   2.9309   3.5795   3.7011
     4.3269   4.5615   4.9247   5.0192   5.4468   5.6012   5.7647   5.8543
     6.1111   6.2889   7.0785   8.0244   9.3690  10.5555  10.6772  11.4610
    12.2625  13.7170  15.2065  15.9972

          k = 0.1250 0.0000-0.0673 (  4518 PWs)   bands (ev):

   -99.0550 -98.1515 -98.0446 -97.6192 -50.6463 -50.1915 -50.1778 -49.5082
   -49.3874 -49.3724 -49.3314 -49.2901 -49.2767 -48.8842 -48.8707 -48.8343
   -16.9295  -4.2496  -1.6374  -0.9259  -0.3698   0.1637   0.8095   1.3485
     1.5930   2.2167   2.5600   2.6405   2.6992   2.9397   2.9768   3.0889
     3.3142   3.4491   3.6190   3.7177   3.8346   3.8506   4.4744   4.5792
     4.8750   5.2014   5.5401   5.8731   7.9890  10.7602  11.2171  11.5215
    12.8537  13.0889  14.8366  15.2975

          k =-0.1875 0.1804-0.0673 (  4466 PWs)   bands (ev):

   -99.0526 -98.1489 -98.0422 -97.6167 -50.6395 -50.2427 -50.1922 -49.4996
   -49.4398 -49.3875 -49.3421 -49.3258 -49.2911 -48.9349 -48.8851 -48.8293
   -16.7837  -3.8271  -1.0315  -0.4403   0.3526   0.4042   1.1386   1.3813
     1.5627   1.8338   2.2487   2.3639   2.5420   2.8422   2.9814   3.2342
     3.3250   3.4207   3.6880   3.9636   4.0248   4.2370   4.4774   4.7183
     4.9546   5.2817   5.5835   6.8864   9.3575   9.8176  10.9194  12.2815
    13.7670  14.0306  15.6564  16.2281

          k = 0.2500 0.0722-0.0673 (  4466 PWs)   bands (ev):

   -99.0526 -98.1489 -98.0422 -97.6167 -50.6395 -50.2427 -50.1922 -49.4996
   -49.4398 -49.3875 -49.3421 -49.3258 -49.2911 -48.9349 -48.8851 -48.8293
   -16.7837  -3.8271  -1.0315  -0.4403   0.3526   0.4043   1.1385   1.3814
     1.5627   1.8339   2.2487   2.3638   2.5420   2.8420   2.9818   3.2342
     3.3249   3.4207   3.6879   3.9638   4.0248   4.2371   4.4773   4.7183
     4.9547   5.2816   5.5836   6.8863   9.3575   9.8174  10.9202  12.2811
    13.7670  14.0305  15.6564  16.2282

          k =-0.3125 0.2526-0.0673 (  4438 PWs)   bands (ev):

   -99.0497 -98.1460 -98.0392 -97.6138 -50.6315 -50.3026 -50.2092 -49.5020
   -49.4905 -49.4058 -49.3957 -49.3243 -49.3079 -48.9940 -48.9022 -48.8237
   -16.6048  -3.2666  -0.9233  -0.4237   0.4169   0.6951   1.0283   1.1543
     1.4033   1.6823   1.9384   2.5696   2.7845   2.9596   3.2171   3.2936
     3.6766   3.9722   4.3365   4.4537   4.7771   4.9049   5.1360   5.4130
     5.5492   5.7328   6.0487   7.9508   8.8696  10.5777  10.6716  13.3175
    14.2192  14.9120  15.3697  15.8832

          k = 0.3750 0.1443-0.0673 (  4438 PWs)   bands (ev):

   -99.0497 -98.1460 -98.0392 -97.6138 -50.6315 -50.3026 -50.2092 -49.5020
   -49.4905 -49.4058 -49.3957 -49.3243 -49.3079 -48.9940 -48.9022 -48.8237
   -16.6048  -3.2666  -0.9233  -0.4237   0.4169   0.6951   1.0285   1.1541
     1.4033   1.6822   1.9384   2.5693   2.7849   2.9597   3.2171   3.2936
     3.6768   3.9718   4.3365   4.4537   4.7771   4.9051   5.1361   5.4129
     5.5491   5.7329   6.0488   7.9507   8.8694  10.5768  10.6728  13.3174
    14.2191  14.9120  15.3696  15.8832

          k =-0.4375 0.3248-0.0673 (  4394 PWs)   bands (ev):

   -99.0480 -98.1443 -98.0376 -97.6121 -50.6270 -50.3363 -50.2188 -49.5347
   -49.4923 -49.4233 -49.4143 -49.3234 -49.3174 -49.0271 -48.9118 -48.8205
   -16.4996  -2.8632  -1.2332  -0.5180   0.4157   0.5304   0.8977   1.0331
     1.1803   1.4463   1.7476   2.5008   2.5992   2.9771   3.4297   3.8228
     4.2270   4.5259   4.7878   5.2755   5.4143   5.4752   5.7344   5.9719
     6.2435   6.7977   7.8008   8.4499   9.5738  10.1259  10.4129  11.3431
    12.1760  13.4053  14.6245  16.2728

          k = 0.5000 0.2165-0.0673 (  4394 PWs)   bands (ev):

   -99.0480 -98.1443 -98.0376 -97.6121 -50.6270 -50.3363 -50.2188 -49.5347
   -49.4923 -49.4233 -49.4143 -49.3234 -49.3174 -49.0271 -48.9118 -48.8205
   -16.4996  -2.8632  -1.2332  -0.5180   0.4157   0.5304   0.8978   1.0331
     1.1803   1.4462   1.7476   2.5006   2.5995   2.9771   3.4297   3.8229
     4.2270   4.5258   4.7879   5.2755   5.4143   5.4752   5.7343   5.9719
     6.2435   6.7978   7.8007   8.4499   9.5738  10.1252  10.4138  11.3430
    12.1760  13.4051  14.6247  16.2728

          k = 0.4375-0.1804-0.0673 (  4416 PWs)   bands (ev):

   -99.0486 -98.1449 -98.0381 -97.6127 -50.6285 -50.3245 -50.2154 -49.5230
   -49.4912 -49.4158 -49.4100 -49.3237 -49.3141 -49.0155 -48.9084 -48.8216
   -16.5369  -3.0186  -1.0847  -0.5094   0.4436   0.6034   0.9411   1.0751
     1.2600   1.5299   1.8169   2.5261   2.6760   3.0193   3.3674   3.6876
     3.9545   4.3406   4.5797   4.9807   5.2223   5.3376   5.4645   5.7579
     5.8181   6.2640   6.8526   8.1111   9.1848  10.4674  11.2970  11.7217
    12.8955  14.3927  15.2911  16.2472

          k =-0.3750-0.2887-0.0673 (  4416 PWs)   bands (ev):

   -99.0486 -98.1449 -98.0381 -97.6127 -50.6285 -50.3244 -50.2154 -49.5230
   -49.4912 -49.4158 -49.4100 -49.3237 -49.3141 -49.0155 -48.9084 -48.8216
   -16.5369  -3.0186  -1.0847  -0.5094   0.4436   0.6034   0.9409   1.0752
     1.2601   1.5299   1.8169   2.5265   2.6755   3.0194   3.3675   3.6873
     3.9547   4.3409   4.5796   4.9807   5.2223   5.3375   5.4645   5.7580
     5.8181   6.2638   6.8526   8.1111   9.1850  10.4672  11.2968  11.7217
    12.8957  14.3928  15.2911  16.2471

          k = 0.3125-0.1083-0.0673 (  4460 PWs)   bands (ev):

   -99.0511 -98.1474 -98.0406 -97.6152 -50.6353 -50.2739 -50.2010 -49.4955
   -49.4709 -49.3968 -49.3706 -49.3252 -49.2998 -48.9658 -48.8940 -48.8264
   -16.6918  -3.5494  -0.9077  -0.2423   0.2512   0.6768   1.1454   1.2617
     1.5829   1.8124   2.1012   2.4239   2.6606   2.8400   2.9419   3.2559
     3.4544   3.7135   3.8863   4.0574   4.4073   4.4672   4.8040   4.9987
     5.2782   5.4596   5.6552   7.4227   9.2365  10.0474  10.7480  12.8990
    14.4634  14.7712  16.0466  16.2700

          k =-0.2500-0.2165-0.0673 (  4460 PWs)   bands (ev):

   -99.0511 -98.1474 -98.0406 -97.6152 -50.6353 -50.2739 -50.2010 -49.4955
   -49.4709 -49.3968 -49.3706 -49.3252 -49.2998 -48.9658 -48.8940 -48.8264
   -16.6918  -3.5494  -0.9077  -0.2423   0.2512   0.6768   1.1453   1.2617
     1.5829   1.8125   2.1012   2.4240   2.6608   2.8400   2.9415   3.2560
     3.4544   3.7136   3.8863   4.0574   4.4073   4.4672   4.8039   4.9987
     5.2783   5.4597   5.6550   7.4229   9.2365  10.0478  10.7472  12.8993
    14.4634  14.7712  16.0466  16.2700

          k = 0.1875-0.0361-0.0673 (  4490 PWs)   bands (ev):

   -99.0540 -98.1504 -98.0436 -97.6181 -50.6434 -50.2138 -50.1840 -49.5043
   -49.4104 -49.3789 -49.3302 -49.3114 -49.2829 -48.9063 -48.8770 -48.8321
   -16.8669  -4.0694  -1.3126  -0.7452  -0.0337   0.4237   1.1011   1.1799
     1.4997   2.0293   2.3846   2.5004   2.8055   2.8599   2.9578   3.0670
     3.3682   3.4181   3.5946   3.6872   3.8937   4.0748   4.3993   4.5954
     4.7975   5.2133   5.5510   6.3614   8.6773  10.3250  11.0858  11.8246
    13.2291  13.4580  15.1778  15.6803

          k =-0.1250-0.1443-0.0673 (  4490 PWs)   bands (ev):

   -99.0540 -98.1504 -98.0436 -97.6181 -50.6434 -50.2137 -50.1840 -49.5043
   -49.4104 -49.3789 -49.3302 -49.3114 -49.2829 -48.9063 -48.8770 -48.8321
   -16.8669  -4.0694  -1.3126  -0.7452  -0.0337   0.4237   1.1012   1.1799
     1.4997   2.0293   2.3846   2.5005   2.8055   2.8600   2.9577   3.0670
     3.3682   3.4182   3.5946   3.6874   3.8933   4.0748   4.3993   4.5955
     4.7974   5.2133   5.5511   6.3615   8.6774  10.3250  11.0850  11.8253
    13.2291  13.4580  15.1778  15.6802

          k = 0.0000-0.0722-0.0673 (  4520 PWs)   bands (ev):

   -99.0556 -98.1521 -98.0452 -97.6198 -50.6479 -50.1793 -50.1745 -49.5103
   -49.3744 -49.3689 -49.3327 -49.2782 -49.2734 -48.8721 -48.8674 -48.8354
   -16.9629  -4.3461  -1.8300  -1.0329  -0.5264  -0.0216   0.6001   1.5461
     1.6419   2.3353   2.4759   2.7122   2.8154   2.8602   3.0153   3.1546
     3.1658   3.5293   3.6180   3.7462   3.7606   4.0507   4.5119   4.5436
     4.9865   5.1902   5.5407   5.6119   7.4991  11.0109  11.2865  11.3716
    12.6555  12.9120  14.6585  15.1053

          k = 0.3750 0.0000-0.0673 (  4450 PWs)   bands (ev):

   -99.0501 -98.1464 -98.0397 -97.6142 -50.6327 -50.2842 -50.2160 -49.4934
   -49.4801 -49.4138 -49.3787 -49.3241 -49.3148 -48.9759 -48.9089 -48.8245
   -16.6330  -3.3636  -0.8620  -0.2196   0.5514   0.9336   1.1184   1.4964
     1.7321   1.9665   2.0794   2.1684   2.4007   2.6919   2.8055   2.9325
     3.2400   3.7079   3.8377   4.1852   4.4084   4.8877   4.9229   5.4252
     5.5697   5.7890   6.1912   7.9449   9.1261  10.3031  10.5492  13.4599
    14.9940  15.3481  15.8976  16.3155

          k =-0.3125 0.3969-0.0673 (  4428 PWs)   bands (ev):

   -99.0480 -98.1443 -98.0376 -97.6121 -50.6269 -50.3150 -50.2404 -49.5134
   -49.4874 -49.4384 -49.4058 -49.3388 -49.3222 -49.0064 -48.9331 -48.8204
   -16.5010  -2.8947  -0.9256  -0.4333   0.5088   0.8434   1.0484   1.4351
     1.6893   1.7932   2.2320   2.3676   2.4670   2.7686   3.0757   3.2971
     3.5334   3.8558   4.1930   4.3576   4.7774   5.0728   5.5088   5.8490
     6.1037   7.2320   7.9235   8.7285   9.7036  10.0855  11.8714  12.2804
    13.1353  14.2917  15.2614  15.7911

          k = 0.5000 0.0722-0.0673 (  4428 PWs)   bands (ev):

   -99.0480 -98.1443 -98.0376 -97.6121 -50.6269 -50.3150 -50.2403 -49.5134
   -49.4874 -49.4384 -49.4058 -49.3388 -49.3222 -49.0064 -48.9331 -48.8204
   -16.5010  -2.8947  -0.9256  -0.4333   0.5089   0.8433   1.0484   1.4350
     1.6892   1.7932   2.2322   2.3674   2.4673   2.7687   3.0755   3.2970
     3.5336   3.8557   4.1930   4.3577   4.7773   5.0729   5.5089   5.8489
     6.1038   7.2320   7.9233   8.7285   9.7018  10.0875  11.8711  12.2806
    13.1350  14.2918  15.2618  15.7915

          k =-0.4375 0.4691-0.0673 (  4432 PWs)   bands (ev):

   -99.0476 -98.1438 -98.0371 -97.6116 -50.6256 -50.3219 -50.2464 -49.5202
   -49.4873 -49.4440 -49.4118 -49.3445 -49.3218 -49.0131 -48.9391 -48.8195
   -16.4694  -2.7635  -0.9860  -0.4628   0.4077   0.8395   0.9734   1.4238
     1.6547   1.7155   2.2386   2.2973   2.3909   2.9299   3.2513   3.4376
     3.6690   3.8486   4.4311   4.5415   4.9879   5.2623   5.4808   5.7595
     6.3391   7.5595   8.7385   9.5011   9.7599  10.3762  11.0291  11.7075
    12.7665  13.5584  14.5623  15.9475

          k = 0.6250 0.1443-0.0673 (  4432 PWs)   bands (ev):

   -99.0476 -98.1438 -98.0371 -97.6116 -50.6256 -50.3219 -50.2464 -49.5202
   -49.4873 -49.4440 -49.4118 -49.3445 -49.3218 -49.0131 -48.9391 -48.8195
   -16.4694  -2.7635  -0.9860  -0.4628   0.4076   0.8396   0.9733   1.4239
     1.6547   1.7155   2.2385   2.2974   2.3908   2.9299   3.2514   3.4376
     3.6688   3.8488   4.4310   4.5415   4.9879   5.2623   5.4807   5.7596
     6.3390   7.5595   8.7385   9.5014   9.7598  10.3762  11.0288  11.7076
    12.7665  13.5592  14.5610  15.9483

          k = 0.4375-0.0361-0.0673 (  4450 PWs)   bands (ev):

   -99.0489 -98.1452 -98.0385 -97.6130 -50.6294 -50.3020 -50.2295 -49.5010
   -49.4878 -49.4278 -49.3944 -49.3285 -49.3227 -48.9935 -48.9223 -48.8222
   -16.5588  -3.1117  -0.8673  -0.3532   0.6953   0.7878   1.1594   1.4409
     1.7560   1.9337   2.1468   2.3206   2.5278   2.6465   2.7850   3.0391
     3.5284   3.6467   3.9433   4.2473   4.5422   4.9904   5.3690   5.7038
     5.8033   6.4588   7.0665   8.5122   9.1214   9.9872  11.2630  13.7794
    14.4844  14.8490  15.6141  15.9937

          k =-0.2500-0.3608-0.0673 (  4450 PWs)   bands (ev):

   -99.0489 -98.1452 -98.0385 -97.6130 -50.6294 -50.3020 -50.2295 -49.5010
   -49.4878 -49.4279 -49.3944 -49.3285 -49.3227 -48.9935 -48.9223 -48.8222
   -16.5588  -3.1117  -0.8673  -0.3532   0.6953   0.7877   1.1594   1.4409
     1.7560   1.9338   2.1467   2.3208   2.5279   2.6459   2.7851   3.0392
     3.5284   3.6466   3.9433   4.2473   4.5422   4.9904   5.3689   5.7040
     5.8032   6.4587   7.0665   8.5124   9.1222   9.9860  11.2631  13.7794
    14.4851  14.8486  15.6137  15.9937

          k = 0.3125 0.0361-0.0673 (  4452 PWs)   bands (ev):

   -99.0514 -98.1477 -98.0410 -97.6155 -50.6362 -50.2635 -50.2028 -49.4960
   -49.4605 -49.3992 -49.3605 -49.3252 -49.3017 -48.9555 -48.8957 -48.8270
   -16.7120  -3.6120  -0.9165  -0.1788   0.2880   0.7824   1.1829   1.3943
     1.7079   1.8511   2.1192   2.2689   2.3522   2.6913   2.9079   3.0893
     3.2447   3.6585   3.8420   3.9830   4.3118   4.4376   4.7262   4.9919
     5.3147   5.4459   5.6316   7.3503   9.4177   9.9589  10.6455  12.7808
    14.2990  14.6078  16.0961  16.6767

          k =-0.1250-0.2887-0.0673 (  4452 PWs)   bands (ev):

   -99.0514 -98.1477 -98.0410 -97.6155 -50.6362 -50.2635 -50.2028 -49.4960
   -49.4604 -49.3993 -49.3605 -49.3252 -49.3017 -48.9555 -48.8957 -48.8270
   -16.7120  -3.6120  -0.9165  -0.1788   0.2880   0.7824   1.1829   1.3942
     1.7078   1.8512   2.1192   2.2691   2.3522   2.6914   2.9076   3.0892
     3.2447   3.6585   3.8420   3.9829   4.3119   4.4376   4.7262   4.9919
     5.3147   5.4460   5.6316   7.3507   9.4177   9.9592  10.6444  12.7814
    14.2990  14.6080  16.0961  16.6759

          k = 0.0000-0.2165-0.0673 (  4480 PWs)   bands (ev):

   -99.0535 -98.1499 -98.0431 -97.6177 -50.6420 -50.2248 -50.1860 -49.5026
   -49.4218 -49.3808 -49.3312 -49.3207 -49.2848 -48.9172 -48.8789 -48.8311
   -16.8379  -3.9854  -1.1935  -0.6536   0.1097   0.4408   1.0430   1.3165
     1.4811   1.9512   2.3587   2.4848   2.7020   2.8926   2.9730   3.1474
     3.3353   3.4141   3.6785   3.7790   3.8126   4.1742   4.3799   4.5614
     4.9906   5.0596   5.6285   6.5398   8.9338  10.1107  11.0651  11.9696
    13.4092  13.6471  15.3392  15.8655

          k = 0.6250 0.0000-0.0673 (  4434 PWs)   bands (ev):

   -99.0471 -98.1433 -98.0366 -97.6112 -50.6243 -50.3002 -50.2799 -49.4985
   -49.4833 -49.4779 -49.3951 -49.3754 -49.3210 -48.9920 -48.9721 -48.8185
   -16.4416  -2.6645  -0.6068  -0.4073  -0.2338   1.1514   1.2583   1.8277
     1.8806   2.1759   2.2853   2.3705   2.5343   2.6676   2.8086   3.1694
     3.6977   3.8787   3.9562   4.2288   4.5958   5.2613   5.4216   5.5712
     6.2745   8.1788   8.7102   9.8397  10.8542  10.9995  11.1617  12.4602
    12.8433  13.5825  14.2353  15.1164

          k =-0.4375 0.6134-0.0673 (  4444 PWs)   bands (ev):

   -99.0474 -98.1437 -98.0369 -97.6115 -50.6252 -50.3107 -50.2607 -49.5090
   -49.4850 -49.4588 -49.4030 -49.3582 -49.3214 -49.0022 -48.9532 -48.8192
   -16.4625  -2.7467  -0.8144  -0.4154   0.1244   1.0126   1.2127   1.6947
     1.7781   2.1162   2.2175   2.3094   2.5208   2.6631   2.9636   3.1767
     3.6366   3.8481   4.0454   4.2474   4.6700   5.1448   5.4822   5.7628
     6.2794   7.8199   8.7579   9.1907   9.7810  11.1429  11.5274  12.2488
    13.1656  13.4644  14.5718  15.2341

          k = 0.7500 0.0722-0.0673 (  4444 PWs)   bands (ev):

   -99.0474 -98.1437 -98.0369 -97.6115 -50.6252 -50.3107 -50.2608 -49.5090
   -49.4850 -49.4588 -49.4030 -49.3582 -49.3214 -49.0022 -48.9532 -48.8192
   -16.4625  -2.7468  -0.8144  -0.4154   0.1243   1.0126   1.2128   1.6947
     1.7781   2.1162   2.2173   2.3094   2.5211   2.6628   2.9637   3.1769
     3.6366   3.8480   4.0454   4.2474   4.6700   5.1448   5.4823   5.7628
     6.2794   7.8200   8.7579   9.1909   9.7808  11.1424  11.5279  12.2487
    13.1653  13.4648  14.5714  15.2347

          k = 0.4375 0.1083-0.0673 (  4428 PWs)   bands (ev):

   -99.0488 -98.1451 -98.0384 -97.6129 -50.6291 -50.3121 -50.2223 -49.5107
   -49.4894 -49.4203 -49.4030 -49.3236 -49.3207 -49.0034 -48.9152 -48.8220
   -16.5510  -3.0790  -0.9482  -0.4445   0.6245   0.8212   0.8950   1.2005
     1.5090   1.6915   2.0310   2.4349   2.6621   2.8902   3.1783   3.2853
     3.5983   3.9339   4.3374   4.4499   4.7915   5.1521   5.3167   5.7125
     5.7882   6.3831   6.9733   8.3307   9.1199  10.2206  11.2755  12.7611
    13.8314  14.7047  15.6204  16.0498

          k =-0.1250-0.4330-0.0673 (  4428 PWs)   bands (ev):

   -99.0488 -98.1451 -98.0384 -97.6129 -50.6291 -50.3120 -50.2224 -49.5107
   -49.4894 -49.4203 -49.4030 -49.3236 -49.3207 -49.0034 -48.9152 -48.8220
   -16.5510  -3.0790  -0.9482  -0.4445   0.6243   0.8215   0.8947   1.2007
     1.5092   1.6916   2.0312   2.4350   2.6617   2.8903   3.1782   3.2853
     3.5983   3.9340   4.3375   4.4499   4.7915   5.1521   5.3167   5.7126
     5.7882   6.3831   6.9734   8.3313   9.1195  10.2202  11.2753  12.7612
    13.8323  14.7042  15.6207  16.0498

          k = 0.0000-0.3608-0.0673 (  4442 PWs)   bands (ev):

   -99.0505 -98.1468 -98.0400 -97.6146 -50.6337 -50.2887 -50.2022 -49.4953
   -49.4848 -49.3975 -49.3845 -49.3250 -49.3010 -48.9803 -48.8952 -48.8252
   -16.6542  -3.4300  -0.9040  -0.3461   0.2834   0.6249   1.0345   1.2616
     1.4396   1.7035   1.9997   2.6596   2.8227   2.9048   3.1196   3.2966
     3.6631   3.8699   4.0443   4.3282   4.5371   4.8062   4.8637   5.0550
     5.3261   5.5556   5.6614   7.6076   9.0087  10.2678  10.7675  13.1373
    14.7463  15.0296  15.1701  16.0195

          k = 0.8750 0.0000-0.0673 (  4420 PWs)   bands (ev):

   -99.0478 -98.1440 -98.0373 -97.6118 -50.6262 -50.3320 -50.2305 -49.5304
   -49.4903 -49.4281 -49.4188 -49.3290 -49.3226 -49.0230 -48.9234 -48.8199
   -16.4824  -2.8014  -1.1559  -0.4947   0.6016   0.6708   0.7579   1.1491
     1.3583   1.5489   1.9268   2.4135   2.4893   3.1024   3.2122   3.8233
     3.8870   4.1588   4.6786   5.0203   5.2716   5.3642   5.6173   5.7955
     6.3948   7.1963   8.5676   9.1350   9.7839  10.0258  10.2837  11.5269
    12.1787  13.7573  14.1655  16.4817

          k = 0.0000-0.5052-0.0673 (  4396 PWs)   bands (ev):

   -99.0483 -98.1446 -98.0379 -97.6124 -50.6278 -50.3334 -50.2136 -49.5320
   -49.4925 -49.4212 -49.4093 -49.3238 -49.3123 -49.0244 -48.9067 -48.8211
   -16.5188  -2.9412  -1.2009  -0.5277   0.3557   0.4999   0.8638   1.1117
     1.1517   1.4260   1.7232   2.5393   2.6786   2.9309   3.5795   3.7014
     4.3263   4.5615   4.9247   5.0198   5.4468   5.6012   5.7647   5.8537
[...]
     3.9334   4.1873   4.5317   4.6658   4.9398   5.1221   5.2954   5.5510
     5.6399   5.8258   6.0614   7.8722   8.7973  10.1386  10.7179  13.2079
    14.2583  14.9071  15.2126  15.7496

          k = 0.3750 0.1443-0.0673 (  4438 PWs)   bands (ev):

   -98.5485 -97.8974 -97.8743 -97.5710 -50.0016 -49.8282 -49.7352 -49.2639
   -49.2266 -49.1928 -49.1667 -49.1563 -49.1247 -48.9498 -48.8589 -48.7803
   -17.0613  -2.6975  -1.0187  -0.0602   0.9112   0.9645   1.1502   1.3511
     1.7161   1.8798   2.1889   2.8320   3.1979   3.3557   3.4764   3.6053
     3.9331   4.1880   4.5317   4.6655   4.9398   5.1219   5.2953   5.5512
     5.6400   5.8257   6.0614   7.8724   8.7974  10.1386  10.7178  13.2079
    14.2583  14.9071  15.2126  15.7496

          k =-0.4375 0.3248-0.0673 (  4394 PWs)   bands (ev):

   -98.5469 -97.8957 -97.8727 -97.5694 -49.9972 -49.8618 -49.7448 -49.2977
   -49.2569 -49.1845 -49.1768 -49.1606 -49.1341 -48.9822 -48.8685 -48.7774
   -16.9601  -2.3234  -1.2859  -0.1304   0.8385   0.9599   1.0380   1.2037
     1.5191   1.6185   1.9496   2.7115   3.0082   3.2761   3.7024   4.0614
     4.4859   4.7487   5.0825   5.4310   5.5255   5.6746   5.8606   6.0466
     6.2650   6.9976   7.9468   8.5607   9.6286  10.1348  10.5357  11.3140
    12.0899  13.0783  14.2689  16.1534

          k = 0.5000 0.2165-0.0673 (  4394 PWs)   bands (ev):

   -98.5469 -97.8957 -97.8727 -97.5694 -49.9972 -49.8618 -49.7448 -49.2977
   -49.2569 -49.1845 -49.1768 -49.1606 -49.1341 -48.9822 -48.8685 -48.7774
   -16.9601  -2.3234  -1.2859  -0.1304   0.8386   0.9599   1.0380   1.2037
     1.5191   1.6185   1.9496   2.7117   3.0081   3.2761   3.7024   4.0615
     4.4859   4.7488   5.0825   5.4309   5.5254   5.6747   5.8607   6.0466
     6.2650   6.9976   7.9468   8.5607   9.6286  10.1350  10.5353  11.3140
    12.0899  13.0783  14.2689  16.1534

          k = 0.4375-0.1804-0.0673 (  4416 PWs)   bands (ev):

   -98.5475 -97.8963 -97.8732 -97.5700 -49.9987 -49.8500 -49.7414 -49.2858
   -49.2458 -49.1883 -49.1732 -49.1586 -49.1308 -48.9709 -48.8651 -48.7784
   -16.9959  -2.4659  -1.1712  -0.1168   0.8823   0.9820   1.0934   1.2484
     1.5867   1.7072   2.0346   2.7574   3.0901   3.3205   3.6486   3.9526
     4.2610   4.5766   4.8105   5.1705   5.4036   5.4748   5.6078   5.8396
     5.9108   6.4499   6.9019   8.1248   9.0436  10.5934  10.9273  11.8965
    12.8656  14.2122  15.2053  16.0895

          k =-0.3750-0.2887-0.0673 (  4416 PWs)   bands (ev):

   -98.5475 -97.8963 -97.8732 -97.5700 -49.9987 -49.8500 -49.7414 -49.2858
   -49.2458 -49.1883 -49.1732 -49.1586 -49.1308 -48.9709 -48.8651 -48.7784
   -16.9959  -2.4659  -1.1712  -0.1168   0.8822   0.9821   1.0933   1.2484
     1.5868   1.7072   2.0346   2.7571   3.0903   3.3206   3.6486   3.9528
     4.2607   4.5763   4.8108   5.1706   5.4036   5.4749   5.6078   5.8393
     5.9109   6.4501   6.9019   8.1247   9.0435  10.5936  10.9273  11.8965
    12.8656  14.2122  15.2053  16.0896

          k = 0.3125-0.1083-0.0673 (  4460 PWs)   bands (ev):

   -98.5499 -97.8988 -97.8757 -97.5725 -50.0052 -49.7996 -49.7270 -49.2360
   -49.2129 -49.1858 -49.1582 -49.1540 -49.1167 -48.9219 -48.8507 -48.7828
   -17.1450  -2.9674  -0.9285   0.0678   0.6132   1.0707   1.1100   1.4632
     1.8559   2.1018   2.3884   2.7942   2.9600   3.1145   3.4137   3.4989
     3.6731   3.8697   4.1475   4.3451   4.5081   4.6941   5.0288   5.1193
     5.3505   5.5017   5.6978   7.3085   9.2319   9.5662  10.8752  12.5313
    14.2862  14.5849  15.8855  16.3628

          k =-0.2500-0.2165-0.0673 (  4460 PWs)   bands (ev):

   -98.5499 -97.8988 -97.8757 -97.5725 -50.0052 -49.7996 -49.7270 -49.2360
   -49.2129 -49.1858 -49.1582 -49.1540 -49.1167 -48.9219 -48.8507 -48.7828
   -17.1450  -2.9674  -0.9285   0.0679   0.6132   1.0707   1.1101   1.4631
     1.8559   2.1018   2.3884   2.7942   2.9599   3.1144   3.4136   3.4992
     3.6729   3.8697   4.1473   4.3452   4.5082   4.6941   5.0290   5.1193
     5.3505   5.5015   5.6979   7.3084   9.2319   9.5662  10.8754  12.5312
    14.2863  14.5848  15.8855  16.3628

          k = 0.1875-0.0361-0.0673 (  4490 PWs)   bands (ev):

   -98.5528 -97.9018 -97.8786 -97.5754 -50.0129 -49.7396 -49.7100 -49.2250
   -49.1748 -49.1546 -49.1407 -49.1279 -49.0999 -48.8629 -48.8337 -48.7881
   -17.3140  -3.4724  -1.1080  -0.5118   0.3411   0.7719   1.0715   1.3056
     1.3350   2.5046   2.7109   2.8895   2.9991   3.0983   3.4211   3.4632
     3.5387   3.6271   3.8070   3.9304   4.1220   4.2351   4.5002   4.7262
     4.9573   5.3111   5.6176   6.3283   8.4401  10.3993  11.1744  11.2332
    13.0319  13.3114  14.8642  15.5164

          k =-0.1250-0.1443-0.0673 (  4490 PWs)   bands (ev):

   -98.5528 -97.9018 -97.8786 -97.5754 -50.0129 -49.7396 -49.7100 -49.2250
   -49.1748 -49.1546 -49.1407 -49.1279 -49.1000 -48.8629 -48.8337 -48.7881
   -17.3140  -3.4724  -1.1080  -0.5118   0.3411   0.7719   1.0715   1.3056
     1.3350   2.5047   2.7109   2.8894   2.9991   3.0983   3.4211   3.4632
     3.5384   3.6274   3.8070   3.9300   4.1224   4.2354   4.5003   4.7260
     4.9573   5.3111   5.6176   6.3281   8.4400  10.3992  11.1779  11.2299
    13.0319  13.3114  14.8642  15.5164

          k = 0.0000-0.0722-0.0673 (  4520 PWs)   bands (ev):

   -98.5545 -97.9035 -97.8802 -97.5771 -50.0173 -49.7053 -49.7005 -49.2322
   -49.1596 -49.1349 -49.1306 -49.0952 -49.0905 -48.8289 -48.8242 -48.7912
   -17.4066  -3.7420  -1.4997  -0.9550  -0.1042   0.3198   0.7401   1.3667
     1.4396   2.8083   2.9392   2.9745   3.1424   3.2269   3.3294   3.3375
     3.3725   3.5904   3.7025   4.1002   4.1624   4.1913   4.7139   4.7263
     5.1399   5.2796   5.6065   5.6775   7.4241  10.3984  11.3220  11.4342
    12.4695  12.7716  14.3210  14.9341

          k = 0.3750 0.0000-0.0673 (  4450 PWs)   bands (ev):

   -98.5490 -97.8979 -97.8747 -97.5715 -50.0027 -49.8098 -49.7420 -49.2454
   -49.2138 -49.1929 -49.1708 -49.1555 -49.1313 -48.9319 -48.8656 -48.7810
   -17.0884  -2.7896  -0.9156   0.0973   0.7893   1.0409   1.4813   1.9607
     2.1068   2.3226   2.3471   2.4339   2.6832   2.8959   3.1609   3.2811
     3.3227   3.8048   3.9971   4.4752   4.5301   5.0477   5.2023   5.5739
     5.6546   5.9226   6.2073   7.8380   9.1144  10.0134  10.4102  13.1889
    14.8236  15.1271  15.9732  16.4264

          k =-0.3125 0.3969-0.0673 (  4428 PWs)   bands (ev):

   -98.5469 -97.8957 -97.8727 -97.5694 -49.9972 -49.8406 -49.7662 -49.2761
   -49.2368 -49.2009 -49.1825 -49.1624 -49.1518 -48.9620 -48.8896 -48.7773
   -16.9613  -2.3530  -1.0117  -0.0295   0.4096   1.4158   1.5806   1.7656
     1.9686   2.0494   2.4488   2.6679   2.8907   3.1104   3.3755   3.5345
     3.7032   4.0226   4.2896   4.5204   4.8745   5.1622   5.6174   5.9295
     6.1955   7.4809   8.0019   8.7250   9.7987   9.9851  11.7343  12.2756
    13.1304  14.3272  15.1661  15.7069

          k = 0.5000 0.0722-0.0673 (  4428 PWs)   bands (ev):

   -98.5469 -97.8957 -97.8727 -97.5694 -49.9972 -49.8406 -49.7663 -49.2761
   -49.2368 -49.2009 -49.1825 -49.1624 -49.1518 -48.9620 -48.8896 -48.7773
   -16.9613  -2.3530  -1.0117  -0.0295   0.4095   1.4159   1.5806   1.7656
     1.9686   2.0495   2.4486   2.6686   2.8899   3.1104   3.3760   3.5344
     3.7025   4.0231   4.2896   4.5202   4.8746   5.1620   5.6174   5.9296
     6.1954   7.4808   8.0021   8.7251   9.8001   9.9836  11.7344  12.2755
    13.1304  14.3271  15.1661  15.7069

          k =-0.4375 0.4691-0.0673 (  4432 PWs)   bands (ev):

   -98.5464 -97.8952 -97.8722 -97.5689 -49.9959 -49.8474 -49.7723 -49.2831
   -49.2429 -49.2063 -49.1810 -49.1649 -49.1561 -48.9686 -48.8956 -48.7764
   -16.9310  -2.2354  -1.0485  -0.0769   0.3384   1.4026   1.5228   1.7651
     1.9271   1.9802   2.3948   2.6352   2.8028   3.2370   3.4052   3.8022
     3.8712   4.0400   4.5909   4.6540   5.0794   5.3660   5.5714   5.8320
     6.3208   7.7384   8.9473   9.6277   9.8123  10.5150  11.0291  11.6890
    12.6998  13.3209  14.3756  15.8810

          k = 0.6250 0.1443-0.0673 (  4432 PWs)   bands (ev):

   -98.5464 -97.8952 -97.8722 -97.5689 -49.9959 -49.8474 -49.7723 -49.2831
   -49.2429 -49.2063 -49.1810 -49.1649 -49.1561 -48.9686 -48.8956 -48.7764
   -16.9310  -2.2354  -1.0485  -0.0769   0.3384   1.4026   1.5228   1.7651
     1.9271   1.9802   2.3949   2.6347   2.8033   3.2371   3.4051   3.8024
     3.8714   4.0395   4.5909   4.6540   5.0793   5.3660   5.5714   5.8320
     6.3208   7.7383   8.9473   9.6275   9.8124  10.5150  11.0292  11.6890
    12.6998  13.3209  14.3756  15.8811

          k = 0.4375-0.0361-0.0673 (  4450 PWs)   bands (ev):

   -98.5478 -97.8966 -97.8736 -97.5703 -49.9996 -49.8276 -49.7554 -49.2630
   -49.2256 -49.1953 -49.1812 -49.1584 -49.1434 -48.9493 -48.8789 -48.7789
   -17.0169  -2.5523  -0.9587   0.0302   0.5682   1.3596   1.5966   1.8111
     2.0653   2.1884   2.5031   2.6428   2.7740   3.0493   3.1141   3.2929
     3.6182   3.7422   4.0829   4.4348   4.6700   5.0874   5.5669   5.8417
     5.9001   6.6719   7.1041   8.5040   9.0026  10.0778  10.7714  13.8542
    14.4431  14.8918  15.5948  15.9257

          k =-0.2500-0.3608-0.0673 (  4450 PWs)   bands (ev):

   -98.5478 -97.8966 -97.8736 -97.5703 -49.9996 -49.8276 -49.7554 -49.2630
   -49.2256 -49.1953 -49.1812 -49.1584 -49.1434 -48.9493 -48.8789 -48.7789
   -17.0169  -2.5523  -0.9587   0.0302   0.5682   1.3595   1.5966   1.8110
     2.0653   2.1884   2.5035   2.6423   2.7740   3.0490   3.1146   3.2926
     3.6182   3.7424   4.0831   4.4344   4.6701   5.0875   5.5670   5.8414
     5.9003   6.6721   7.1041   8.5036   9.0024  10.0784  10.7713  13.8542
    14.4431  14.8917  15.5951  15.9256

          k = 0.3125 0.0361-0.0673 (  4452 PWs)   bands (ev):

   -98.5502 -97.8992 -97.8760 -97.5728 -50.0061 -49.7892 -49.7288 -49.2267
   -49.2109 -49.1800 -49.1583 -49.1534 -49.1185 -48.9118 -48.8524 -48.7833
   -17.1645  -3.0279  -0.9110   0.1512   0.5893   1.0154   1.1937   1.7138
     2.0682   2.1878   2.4558   2.5438   2.6189   2.9370   3.2166   3.3746
     3.4811   3.8007   4.0889   4.2990   4.4297   4.7009   4.9284   5.1391
     5.3877   5.5146   5.6552   7.2397   9.3424   9.5873  10.7636  12.3824
    14.1172  14.4201  15.8181  16.5962

          k =-0.1250-0.2887-0.0673 (  4452 PWs)   bands (ev):

   -98.5502 -97.8992 -97.8760 -97.5728 -50.0061 -49.7892 -49.7287 -49.2267
   -49.2109 -49.1800 -49.1583 -49.1534 -49.1185 -48.9118 -48.8524 -48.7833
   -17.1645  -3.0279  -0.9110   0.1512   0.5893   1.0155   1.1936   1.7138
     2.0682   2.1877   2.4559   2.5436   2.6187   2.9371   3.2164   3.3745
     3.4815   3.8006   4.0892   4.2993   4.4294   4.7009   4.9286   5.1390
     5.3877   5.5146   5.6552   7.2394   9.3424   9.5874  10.7639  12.3822
    14.1172  14.4201  15.8181  16.5966

          k = 0.0000-0.2165-0.0673 (  4480 PWs)   bands (ev):

   -98.5523 -97.9013 -97.8781 -97.5749 -50.0116 -49.7507 -49.7120 -49.2230
   -49.1848 -49.1563 -49.1426 -49.1382 -49.1018 -48.8738 -48.8357 -48.7872
   -17.2859  -3.3905  -1.0404  -0.3607   0.4342   0.7506   1.1376   1.2866
     1.4710   2.4217   2.7021   2.8275   2.9189   3.1488   3.4434   3.4884
     3.5760   3.6605   3.9188   3.9825   4.0154   4.3278   4.4535   4.7040
     5.1274   5.1591   5.6928   6.4839   8.6450  10.1935  11.2042  11.3538
    13.2140  13.4943  15.0328  15.7056

          k = 0.6250 0.0000-0.0673 (  4434 PWs)   bands (ev):

   -98.5459 -97.8947 -97.8717 -97.5684 -49.9947 -49.8258 -49.8058 -49.2611
   -49.2413 -49.2215 -49.1993 -49.1690 -49.1634 -48.9479 -48.9283 -48.7756
   -16.9042  -2.1494  -0.6782  -0.3231   0.0454   1.7636   1.8658   2.1820
     2.2627   2.3786   2.6121   2.6931   2.8998   2.9966   3.1021   3.3744
     3.7525   3.9275   4.1348   4.3176   4.6918   5.3649   5.4970   5.6443
     6.2405   8.3253   8.8148  10.0050  10.8922  11.1246  11.2610  12.5372
    12.8565  13.5734  14.1798  15.0739

          k =-0.4375 0.6134-0.0673 (  4444 PWs)   bands (ev):

   -98.5463 -97.8951 -97.8720 -97.5688 -49.9956 -49.8363 -49.7866 -49.2717
   -49.2334 -49.2198 -49.1847 -49.1709 -49.1593 -48.9579 -48.9096 -48.7762
   -16.9243  -2.2210  -0.8881  -0.0460   0.0926   1.6021   1.7853   2.0083
     2.1520   2.3320   2.5863   2.6601   2.7680   3.0085   3.2580   3.4300
     3.7320   3.9726   4.1380   4.3865   4.7663   5.2365   5.5682   5.8358
     6.2831   8.0107   8.9092   9.2855   9.7882  11.1473  11.6221  12.3047
    13.2106  13.3102  14.5554  15.0374

          k = 0.7500 0.0722-0.0673 (  4444 PWs)   bands (ev):

   -98.5463 -97.8951 -97.8720 -97.5688 -49.9956 -49.8364 -49.7865 -49.2717
   -49.2333 -49.2198 -49.1847 -49.1709 -49.1593 -48.9579 -48.9096 -48.7762
   -16.9243  -2.2210  -0.8881  -0.0460   0.0926   1.6021   1.7851   2.0084
     2.1521   2.3321   2.5862   2.6606   2.7671   3.0093   3.2577   3.4297
     3.7320   3.9728   4.1382   4.3865   4.7663   5.2365   5.5681   5.8357
     6.2833   8.0106   8.9091   9.2856   9.7883  11.1473  11.6221  12.3047
    13.2106  13.3103  14.5554  15.0375

          k = 0.4375 0.1083-0.0673 (  4428 PWs)   bands (ev):

   -98.5477 -97.8965 -97.8734 -97.5702 -49.9993 -49.8376 -49.7483 -49.2733
   -49.2344 -49.1909 -49.1787 -49.1579 -49.1372 -48.9590 -48.8719 -48.7787
   -17.0095  -2.5219  -1.0467  -0.0540   0.7290   1.1701   1.3572   1.4883
     1.8042   1.9266   2.2264   2.7360   3.1228   3.2121   3.4397   3.5604
     3.8363   4.1332   4.4416   4.6548   4.8859   5.2455   5.5432   5.8064
     5.9072   6.5922   7.0137   8.3345   8.9797  10.3284  10.8179  12.9446
    13.7786  14.5965  15.5919  15.8856

          k =-0.1250-0.4330-0.0673 (  4428 PWs)   bands (ev):

   -98.5477 -97.8965 -97.8734 -97.5702 -49.9993 -49.8377 -49.7483 -49.2733
   -49.2344 -49.1909 -49.1787 -49.1579 -49.1372 -48.9590 -48.8719 -48.7787
   -17.0095  -2.5219  -1.0467  -0.0540   0.7290   1.1707   1.3570   1.4883
     1.8038   1.9268   2.2258   2.7362   3.1234   3.2120   3.4392   3.5614
     3.8363   4.1327   4.4415   4.6550   4.8859   5.2454   5.5430   5.8063
     5.9074   6.5922   7.0137   8.3341   8.9799  10.3286  10.8179  12.9446
    13.7787  14.5964  15.5920  15.8857

          k = 0.0000-0.3608-0.0673 (  4442 PWs)   bands (ev):

   -98.5493 -97.8982 -97.8751 -97.5718 -50.0036 -49.8143 -49.7282 -49.2503
   -49.2177 -49.1922 -49.1594 -49.1554 -49.1178 -48.9363 -48.8519 -48.7817
   -17.1088  -2.8526  -0.9676  -0.0207   0.7159   1.0655   1.0792   1.3369
     1.7250   1.9412   2.2720   2.9080   3.1871   3.4013   3.4596   3.5033
     3.9570   4.0754   4.4064   4.4672   4.7613   4.8721   5.1174   5.1774
     5.3877   5.5650   5.7198   7.4941   8.9880   9.7477  10.9001  12.8354
    14.6113  14.8836  15.2582  15.9993

          k = 0.8750 0.0000-0.0673 (  4420 PWs)   bands (ev):

   -98.5466 -97.8954 -97.8724 -97.5691 -49.9965 -49.8576 -49.7564 -49.2934
   -49.2527 -49.1903 -49.1814 -49.1614 -49.1449 -48.9782 -48.8800 -48.7769
   -16.9435  -2.2684  -1.2076  -0.1053   0.6208   1.1664   1.2109   1.4314
     1.6668   1.7774   2.0825   2.6943   2.9350   3.2885   3.4911   4.0317
     4.2136   4.4307   4.9045   5.1156   5.3819   5.5099   5.7048   5.8793
     6.3617   7.3918   8.8284   9.3060   9.8634  10.1128  10.2643  11.5005
    12.1092  13.5352  13.7029  16.4780

          k = 0.0000-0.5052-0.0673 (  4396 PWs)   bands (ev):

   -98.5472 -97.8960 -97.8730 -97.5697 -49.9980 -49.8590 -49.7396 -49.2949
   -49.2543 -49.1864 -49.1713 -49.1600 -49.1291 -48.9796 -48.8634 -48.7780
   -16.9785  -2.3945  -1.2670  -0.1392   0.8948   0.9380   0.9862   1.1398
     1.4905   1.5868   1.9449   2.7352   3.0416   3.3048   3.8436   3.9560
     4.5639   4.7796   5.1753   5.3443   5.5525   5.8283   5.9253   5.9266
     6.1572   6.4464   7.1554   8.0681   9.2705  10.6903  10.7329  11.3580
    12.1580  13.5046  14.9614  15.8486

     the Fermi energy is     7.7677 ev

!    total energy              =   -1158.85570043 Ry
     Harris-Foulkes estimate   =   -1158.85570043 Ry
     estimated scf accuracy    <          1.4E-09 Ry

     The total energy is the sum of the following terms:

     one-electron contribution =   -5821.86405774 Ry
     hartree contribution      =    2916.36375970 Ry
     xc contribution           =    -113.29126145 Ry
     ewald contribution        =    1875.65194117 Ry
     one-center paw contrib.   =     -15.71520085 Ry
     smearing contrib. (-TS)   =      -0.00088126 Ry

     convergence has been achieved in   9 iterations

     Forces acting on atoms (Ry/au):


     negative rho (up, down):  1.274E-04 0.000E+00
     atom    1 type  1   force =     0.00000000    0.00000328   -0.02092568
     atom    2 type  1   force =     0.00000000    0.00000444    0.02104636
     atom    3 type  1   force =     0.00000000    0.00001736    0.00011469
     atom    4 type  1   force =     0.00000000    0.00006498   -0.00076569
     atom    5 type  2   force =     0.00000000   -0.00016278    0.00016045
     atom    6 type  3   force =     0.00000000    0.00007272    0.00036987

     Total force =     0.000893     Total SCF correction =     0.000089
     SCF correction compared to forces is large: reduce conv_thr to get better values

     bfgs converged in  17 scf cycles and  15 bfgs steps
     (criteria: energy <  1.0E-04, force <  1.0E-03)

     End of BFGS Geometry Optimization

     Final energy   =   -1158.8557004328 Ry
Begin final coordinates

ATOMIC_POSITIONS (alat)
Au       0.000000000   0.000000000   0.000000000    0   0   0
Au       0.500000000   0.288675000   0.816497000    0   0   0
Au       0.000000000   0.577337810   1.676628222
Au      -0.000000000  -0.000017558   2.509425714
C       -0.000000000   0.000661026   3.221864584
O        0.000001000   0.000353338   3.621247360
End final coordinates



     Writing output data file CO_Au_top.save

     init_run     :     38.78s CPU     58.73s WALL (       1 calls)
     electrons    :  21360.53s CPU  30787.88s WALL (      17 calls)
     update_pot   :     29.10s CPU     59.82s WALL (      16 calls)
     forces       :    358.05s CPU    472.79s WALL (      17 calls)

     Called by init_run:
     wfcinit      :     35.50s CPU     52.17s WALL (       1 calls)
     potinit      :      0.92s CPU      1.64s WALL (       1 calls)

     Called by electrons:
     c_bands      :  18716.53s CPU  26447.42s WALL (     172 calls)
     sum_band     :   2490.29s CPU   3983.00s WALL (     172 calls)
     v_of_rho     :     45.08s CPU     80.80s WALL (     187 calls)
     newd         :     88.05s CPU    168.26s WALL (     187 calls)
     mix_rho      :      4.55s CPU      9.26s WALL (     172 calls)

     Called by c_bands:
     init_us_2    :    221.84s CPU    357.52s WALL (   19656 calls)
     cegterg      :  17693.82s CPU  24806.81s WALL (    8944 calls)

     Called by *egterg:
     h_psi        :  10704.52s CPU  16358.21s WALL (   34602 calls)
     s_psi        :   1800.82s CPU   1807.43s WALL (   34602 calls)
     g_psi        :     30.42s CPU     30.76s WALL (   25606 calls)
     cdiaghg      :    667.74s CPU   1449.70s WALL (   33614 calls)

     Called by h_psi:
     add_vuspsi   :   1803.21s CPU   1868.46s WALL (   34602 calls)

     General routines
     calbec       :   2971.57s CPU   4312.97s WALL (   45262 calls)
     fft          :     17.45s CPU     31.15s WALL (    3135 calls)
     ffts         :      1.04s CPU      1.61s WALL (     359 calls)
     fftw         :   6605.36s CPU  11163.53s WALL ( 2844360 calls)
     interpolate  :      4.48s CPU      8.06s WALL (     359 calls)
     davcio       :      0.06s CPU      0.94s WALL (      52 calls)

     Parallel routines
     fft_scatter  :    785.48s CPU   1252.19s WALL ( 2847854 calls)

     PAW routines
     PAW_pot      :     29.76s CPU     56.22s WALL (     203 calls)
     PAW_symme    :      0.01s CPU      0.01s WALL (     375 calls)

     PWSCF        :     6h 4m CPU        8h45m WALL


   This run was terminated on:   8:45:56  19Jun2018            

=------------------------------------------------------------------------------=
   JOB DONE.
=------------------------------------------------------------------------------=
