
     Program PWSCF v.5.1 starts on 18Jun2018 at 14:21:13 

     This program is part of the open-source Quantum ESPRESSO suite
     for quantum simulation of materials; please cite
         "P. Giannozzi et al., J. Phys.:Condens. Matter 21 395502 (2009);
          URL http://www.quantum-espresso.org", 
     in publications or presentations arising from this work. More details at
     http://www.quantum-espresso.org/quote

     Parallel version (MPI), running on     1 processors
     Waiting for input...
     Reading input from standard input
Warning: card &IONS ignored
Warning: card / ignored
Warning: card &CELL ignored
Warning: card / ignored

     Current dimensions of program PWSCF are:
     Max number of different atomic species (ntypx) = 10
     Max number of k-points (npk) =  40000
     Max angular momentum in pseudopotentials (lmaxx) =  3
               file C.pbe-n-kjpaw_psl.1.0.0.UPF: wavefunction(s)  2S 2P renormalized
               file O.pbe-n-kjpaw_psl.0.1.U: wavefunction(s)  2P renormalized

     Subspace diagonalization in iterative solution of the eigenvalue problem:
     a serial algorithm will be used


     G-vector sticks info
     --------------------
     sticks:   dense  smooth     PW     G-vecs:    dense   smooth      PW
     Sum         649     313    109               100611    35335    6935



     bravais-lattice index     =            4
     lattice parameter (alat)  =       5.4490  a.u.
     unit-cell volume          =    1040.6255 (a.u.)^3
     number of atoms/cell      =            6
     number of atomic types    =            3
     number of electrons       =        86.00
     number of Kohn-Sham states=           52
     kinetic-energy cutoff     =      40.0000  Ry
     charge density cutoff     =     320.0000  Ry
     convergence threshold     =      1.0E-06
     mixing beta               =       0.7000
     number of iterations used =            8  plain     mixing
     Exchange-correlation      =  SLA  PW   PBX  PBC ( 1  4  3  4 0)

     celldm(1)=   5.449000  celldm(2)=   0.000000  celldm(3)=   7.427000
     celldm(4)=   0.000000  celldm(5)=   0.000000  celldm(6)=   0.000000

     crystal axes: (cart. coord. in units of alat)
               a(1) = (   1.000000   0.000000   0.000000 )  
               a(2) = (  -0.500000   0.866025   0.000000 )  
               a(3) = (   0.000000   0.000000   7.427000 )  

     reciprocal axes: (cart. coord. in units 2 pi/alat)
               b(1) = (  1.000000  0.577350 -0.000000 )  
               b(2) = (  0.000000  1.154701  0.000000 )  
               b(3) = (  0.000000 -0.000000  0.134644 )  


     PseudoPot. # 1 for Au read from file:
     /home/oropebuen/Documents/Job/Absortion/SSSP_efficiency_pseudos/Au_ONCV_PBE-1.0.upf
     MD5 check sum: 1009843a674e36925f098327e430af60
     Pseudo is Norm-conserving, Zval = 19.0
     Generated using ONCVPSP code by D. R. Hamann
     Using radial grid of  602 points,  8 beta functions with: 
                l(1) =   0
                l(2) =   0
                l(3) =   1
                l(4) =   1
                l(5) =   2
                l(6) =   2
                l(7) =   3
                l(8) =   3

     PseudoPot. # 2 for  C read from file:
     /home/oropebuen/Documents/Job/Absortion/SSSP_efficiency_pseudos/C.pbe-n-kjpaw_psl.1.0.0.UPF
     MD5 check sum: 8e281b34a927efac7e739263a90d7aed
     Pseudo is Projector augmented-wave + core cor, Zval =  4.0
     Generated using "atomic" code by A. Dal Corso  v.5.1
     Shape of augmentation charge: PSQ
     Using radial grid of 1073 points,  4 beta functions with: 
                l(1) =   0
                l(2) =   0
                l(3) =   1
                l(4) =   1
     Q(r) pseudized with 0 coefficients 


     PseudoPot. # 3 for  O read from file:
     /home/oropebuen/Documents/Job/Absortion/SSSP_efficiency_pseudos/O.pbe-n-kjpaw_psl.0.1.U
     MD5 check sum: 3f94a2996a3169367d6eb21d9b593f20
     Pseudo is Projector augmented-wave + core cor, Zval =  6.0
     Generated using "atomic" code by A. Dal Corso  v.5.0.99 svn rev. 10869
     Shape of augmentation charge: BESSEL
     Using radial grid of 1095 points,  4 beta functions with: 
                l(1) =   0
                l(2) =   0
                l(3) =   1
                l(4) =   1
     Q(r) pseudized with 0 coefficients 


     atomic species   valence    mass     pseudopotential
        Au            19.00   196.96600     Au( 1.00)
        C              4.00    12.01070      C( 1.00)
        O              6.00    15.99940      O( 1.00)

      2 Sym. Ops. (no inversion) found



   Cartesian axes

     site n.     atom                  positions (alat units)
         1           Au  tau(   1) = (  -0.0000000  -0.0000025  -0.0736328  )
         2           Au  tau(   2) = (   0.5000000   0.2886715   0.7980104  )
         3           Au  tau(   3) = (   0.0000000   0.5773182   1.6669974  )
         4           Au  tau(   4) = (   0.0000000   0.0000162   2.5291351  )
         5           C   tau(   5) = (   0.5000000   0.2893816   3.0557178  )
         6           O   tau(   6) = (   0.5000010   0.2889900   3.4613292  )

     number of k points=    52  gaussian smearing, width (Ry)=  0.0100
                       cart. coord. in units 2pi/alat
        k(    1) = (   0.0625000   0.1082532  -0.0673219), wk =   0.0416667
        k(    2) = (   0.0625000   0.2525907  -0.0673219), wk =   0.0416667
        k(    3) = (   0.0625000   0.3969283  -0.0673219), wk =   0.0416667
        k(    4) = (   0.0625000   0.5412659  -0.0673219), wk =   0.0416667
        k(    5) = (   0.0625000  -0.4690971  -0.0673219), wk =   0.0416667
        k(    6) = (   0.0625000  -0.3247595  -0.0673219), wk =   0.0416667
        k(    7) = (   0.0625000  -0.1804220  -0.0673219), wk =   0.0416667
        k(    8) = (   0.0625000  -0.0360844  -0.0673219), wk =   0.0416667
        k(    9) = (   0.1875000   0.3247595  -0.0673219), wk =   0.0416667
        k(   10) = (   0.1875000   0.4690971  -0.0673219), wk =   0.0416667
        k(   11) = (   0.1875000   0.6134347  -0.0673219), wk =   0.0416667
        k(   12) = (   0.1875000  -0.3969283  -0.0673219), wk =   0.0416667
        k(   13) = (   0.1875000  -0.2525907  -0.0673219), wk =   0.0416667
        k(   14) = (   0.1875000  -0.1082532  -0.0673219), wk =   0.0416667
        k(   15) = (   0.3125000   0.5412659  -0.0673219), wk =   0.0416667
        k(   16) = (   0.3125000   0.6856034  -0.0673219), wk =   0.0416667
        k(   17) = (   0.3125000  -0.3247595  -0.0673219), wk =   0.0416667
        k(   18) = (   0.3125000  -0.1804220  -0.0673219), wk =   0.0416667
        k(   19) = (   0.4375000   0.7577722  -0.0673219), wk =   0.0416667
        k(   20) = (   0.4375000  -0.2525907  -0.0673219), wk =   0.0416667
        k(   21) = (   0.1250000   0.0000000  -0.0673219), wk =   0.0208333
        k(   22) = (  -0.1875000   0.1804220  -0.0673219), wk =   0.0416667
        k(   23) = (   0.2500000   0.0721688  -0.0673219), wk =   0.0416667
        k(   24) = (  -0.3125000   0.2525907  -0.0673219), wk =   0.0416667
        k(   25) = (   0.3750000   0.1443376  -0.0673219), wk =   0.0416667
        k(   26) = (  -0.4375000   0.3247595  -0.0673219), wk =   0.0416667
        k(   27) = (   0.5000000   0.2165064  -0.0673219), wk =   0.0416667
        k(   28) = (   0.4375000  -0.1804220  -0.0673219), wk =   0.0416667
        k(   29) = (  -0.3750000  -0.2886751  -0.0673219), wk =   0.0416667
        k(   30) = (   0.3125000  -0.1082532  -0.0673219), wk =   0.0416667
        k(   31) = (  -0.2500000  -0.2165064  -0.0673219), wk =   0.0416667
        k(   32) = (   0.1875000  -0.0360844  -0.0673219), wk =   0.0416667
        k(   33) = (  -0.1250000  -0.1443376  -0.0673219), wk =   0.0416667
        k(   34) = (   0.0000000  -0.0721688  -0.0673219), wk =   0.0208333
        k(   35) = (   0.3750000   0.0000000  -0.0673219), wk =   0.0208333
        k(   36) = (  -0.3125000   0.3969283  -0.0673219), wk =   0.0416667
        k(   37) = (   0.5000000   0.0721688  -0.0673219), wk =   0.0416667
        k(   38) = (  -0.4375000   0.4690971  -0.0673219), wk =   0.0416667
        k(   39) = (   0.6250000   0.1443376  -0.0673219), wk =   0.0416667
        k(   40) = (   0.4375000  -0.0360844  -0.0673219), wk =   0.0416667
        k(   41) = (  -0.2500000  -0.3608439  -0.0673219), wk =   0.0416667
        k(   42) = (   0.3125000   0.0360844  -0.0673219), wk =   0.0416667
        k(   43) = (  -0.1250000  -0.2886751  -0.0673219), wk =   0.0416667
        k(   44) = (   0.0000000  -0.2165064  -0.0673219), wk =   0.0208333
        k(   45) = (   0.6250000   0.0000000  -0.0673219), wk =   0.0208333
        k(   46) = (  -0.4375000   0.6134347  -0.0673219), wk =   0.0416667
        k(   47) = (   0.7500000   0.0721688  -0.0673219), wk =   0.0416667
        k(   48) = (   0.4375000   0.1082532  -0.0673219), wk =   0.0416667
        k(   49) = (  -0.1250000  -0.4330127  -0.0673219), wk =   0.0416667
        k(   50) = (   0.0000000  -0.3608439  -0.0673219), wk =   0.0208333
        k(   51) = (   0.8750000   0.0000000  -0.0673219), wk =   0.0208333
        k(   52) = (   0.0000000  -0.5051815  -0.0673219), wk =   0.0208333

     Dense  grid:   100611 G-vectors     FFT dimensions: (  32,  32, 240)

     Smooth grid:    35335 G-vectors     FFT dimensions: (  24,  24, 180)

     Largest allocated arrays     est. size (Mb)     dimensions
        Kohn-Sham Wavefunctions         3.59 Mb     (    4520,   52)
        NL pseudopotentials             9.93 Mb     (    4520,  144)
        Each V/rho on FFT grid          3.75 Mb     (  245760)
        Each G-vector array             0.77 Mb     (  100611)
        G-vector shells                 0.04 Mb     (    4911)
     Largest temporary arrays     est. size (Mb)     dimensions
        Auxiliary wavefunctions        14.35 Mb     (    4520,  208)
        Each subspace H/S matrix        0.66 Mb     (     208,  208)
        Each <psi_i|beta_j> matrix      0.11 Mb     (     144,   52)
        Arrays for rho mixing          30.00 Mb     (  245760,    8)

     Check: negative/imaginary core charge=   -0.000003    0.000000

     Initial potential from superposition of free atoms
     Check: negative starting charge=   -0.000174

     starting charge   85.91012, renormalised to   86.00000

     negative rho (up, down):  1.746E-04 0.000E+00
     Starting wfc are    8 randomized atomic wfcs +   44 random wfc
     Checking if some PAW data can be deallocated... 

     total cpu time spent up to now is       15.7 secs

     per-process dynamical memory:   267.8 Mb

     Self-consistent Calculation

     iteration #  1     ecut=    40.00 Ry     beta=0.70
     Davidson diagonalization with overlap
     ethr =  1.00E-02,  avg # of iterations =  7.2

     Threshold (ethr) on eigenvalues was too large:
     Diagonalizing with lowered threshold

     Davidson diagonalization with overlap
     ethr =  7.39E-04,  avg # of iterations =  1.0

     negative rho (up, down):  1.467E-04 0.000E+00

     total cpu time spent up to now is      234.8 secs

     total energy              =   -1158.37189745 Ry
     Harris-Foulkes estimate   =   -1158.91090830 Ry
     estimated scf accuracy    <       0.63654231 Ry

     iteration #  2     ecut=    40.00 Ry     beta=0.70
     Davidson diagonalization with overlap
     ethr =  7.40E-04,  avg # of iterations =  4.5

     negative rho (up, down):  3.087E-04 0.000E+00

     total cpu time spent up to now is      302.2 secs

     total energy              =   -1151.92098167 Ry
     Harris-Foulkes estimate   =   -1164.06597476 Ry
     estimated scf accuracy    <     326.05386283 Ry

     iteration #  3     ecut=    40.00 Ry     beta=0.70
     Davidson diagonalization with overlap
     ethr =  7.40E-04,  avg # of iterations =  5.0

     negative rho (up, down):  4.261E-04 0.000E+00

     total cpu time spent up to now is      364.6 secs

     total energy              =   -1157.14777131 Ry
     Harris-Foulkes estimate   =   -1159.77516280 Ry
     estimated scf accuracy    <      21.48684307 Ry

     iteration #  4     ecut=    40.00 Ry     beta=0.70
     Davidson diagonalization with overlap
     ethr =  7.40E-04,  avg # of iterations =  4.8

     negative rho (up, down):  1.739E-04 0.000E+00

     total cpu time spent up to now is      423.8 secs

     total energy              =   -1158.34074126 Ry
     Harris-Foulkes estimate   =   -1159.19750319 Ry
     estimated scf accuracy    <       9.60253393 Ry

     iteration #  5     ecut=    40.00 Ry     beta=0.70
     Davidson diagonalization with overlap
     ethr =  7.40E-04,  avg # of iterations =  3.2

     negative rho (up, down):  1.251E-04 0.000E+00

     total cpu time spent up to now is      471.3 secs

     total energy              =   -1158.81852053 Ry
     Harris-Foulkes estimate   =   -1158.83895099 Ry
     estimated scf accuracy    <       0.18045889 Ry

     iteration #  6     ecut=    40.00 Ry     beta=0.70
     Davidson diagonalization with overlap
     ethr =  2.10E-04,  avg # of iterations =  2.0

     negative rho (up, down):  1.298E-04 0.000E+00

     total cpu time spent up to now is      511.1 secs

     total energy              =   -1158.82153390 Ry
     Harris-Foulkes estimate   =   -1158.82718418 Ry
     estimated scf accuracy    <       0.06070919 Ry

     iteration #  7     ecut=    40.00 Ry     beta=0.70
     Davidson diagonalization with overlap
     ethr =  7.06E-05,  avg # of iterations =  1.8

     negative rho (up, down):  1.360E-04 0.000E+00

     total cpu time spent up to now is      551.8 secs

     total energy              =   -1158.82162491 Ry
     Harris-Foulkes estimate   =   -1158.82407761 Ry
     estimated scf accuracy    <       0.03447168 Ry

     iteration #  8     ecut=    40.00 Ry     beta=0.70
     Davidson diagonalization with overlap
     ethr =  4.01E-05,  avg # of iterations =  1.9

     negative rho (up, down):  1.364E-04 0.000E+00

     total cpu time spent up to now is      593.7 secs

     total energy              =   -1158.82185496 Ry
     Harris-Foulkes estimate   =   -1158.82263967 Ry
     estimated scf accuracy    <       0.01261824 Ry

     iteration #  9     ecut=    40.00 Ry     beta=0.70
     Davidson diagonalization with overlap
     ethr =  1.47E-05,  avg # of iterations =  2.7

     negative rho (up, down):  1.360E-04 0.000E+00

     total cpu time spent up to now is      634.8 secs

     total energy              =   -1158.82196256 Ry
     Harris-Foulkes estimate   =   -1158.82226265 Ry
     estimated scf accuracy    <       0.00612504 Ry

     iteration # 10     ecut=    40.00 Ry     beta=0.70
     Davidson diagonalization with overlap
     ethr =  7.12E-06,  avg # of iterations =  1.2

     negative rho (up, down):  1.359E-04 0.000E+00

     total cpu time spent up to now is      673.7 secs

     total energy              =   -1158.82190545 Ry
     Harris-Foulkes estimate   =   -1158.82206729 Ry
     estimated scf accuracy    <       0.00393184 Ry

     iteration # 11     ecut=    40.00 Ry     beta=0.70
     Davidson diagonalization with overlap
     ethr =  4.57E-06,  avg # of iterations =  1.1

     negative rho (up, down):  1.361E-04 0.000E+00

     total cpu time spent up to now is      712.6 secs

     total energy              =   -1158.82170682 Ry
     Harris-Foulkes estimate   =   -1158.82193860 Ry
     estimated scf accuracy    <       0.00198663 Ry

     iteration # 12     ecut=    40.00 Ry     beta=0.70
     Davidson diagonalization with overlap
     ethr =  2.31E-06,  avg # of iterations =  3.2

     negative rho (up, down):  1.355E-04 0.000E+00

     total cpu time spent up to now is      760.2 secs

     total energy              =   -1158.82180821 Ry
     Harris-Foulkes estimate   =   -1158.82185018 Ry
     estimated scf accuracy    <       0.00026722 Ry

     iteration # 13     ecut=    40.00 Ry     beta=0.70
     Davidson diagonalization with overlap
     ethr =  3.11E-07,  avg # of iterations =  1.2

     negative rho (up, down):  1.358E-04 0.000E+00

     total cpu time spent up to now is      811.0 secs

     total energy              =   -1158.82182756 Ry
     Harris-Foulkes estimate   =   -1158.82183011 Ry
     estimated scf accuracy    <       0.00000694 Ry

     iteration # 14     ecut=    40.00 Ry     beta=0.70
     Davidson diagonalization with overlap
     ethr =  8.07E-09,  avg # of iterations =  2.0

     negative rho (up, down):  1.359E-04 0.000E+00

     total cpu time spent up to now is      868.1 secs

     total energy              =   -1158.82182830 Ry
     Harris-Foulkes estimate   =   -1158.82182965 Ry
     estimated scf accuracy    <       0.00001101 Ry

     iteration # 15     ecut=    40.00 Ry     beta=0.70
     Davidson diagonalization with overlap
     ethr =  8.07E-09,  avg # of iterations =  1.0

     negative rho (up, down):  1.359E-04 0.000E+00

     total cpu time spent up to now is      907.8 secs

     total energy              =   -1158.82182902 Ry
     Harris-Foulkes estimate   =   -1158.82182915 Ry
     estimated scf accuracy    <       0.00000122 Ry

     iteration # 16     ecut=    40.00 Ry     beta=0.70
     Davidson diagonalization with overlap
     ethr =  1.41E-09,  avg # of iterations =  1.0

     negative rho (up, down):  1.360E-04 0.000E+00

     total cpu time spent up to now is      948.7 secs

     End of self-consistent calculation

          k = 0.0625 0.1083-0.0673 (  4518 PWs)   bands (ev):

   -99.5093 -98.3611 -98.1936 -97.7607 -50.8713 -50.7423 -50.7279 -49.6494
   -49.5976 -49.5838 -49.4496 -49.4397 -49.4263 -49.0274 -49.0138 -48.9575
   -16.4382  -4.7120  -1.2953  -0.8442  -0.0767   0.7453   0.9076   1.0503
     1.3182   2.0530   2.2771   2.4397   2.6976   2.8203   2.9318   3.0342
     3.2616   3.2975   3.4310   3.4827   3.6809   3.7519   4.3092   4.4325
     4.6835   4.9659   5.2509   5.4808   7.4780  10.6052  11.2529  11.4095
    12.9183  13.4229  14.6780  15.3959

          k = 0.0625 0.2526-0.0673 (  4466 PWs)   bands (ev):

   -99.5068 -98.3586 -98.1911 -97.7582 -50.8645 -50.7948 -50.7424 -49.6496
   -49.6421 -49.5984 -49.4908 -49.4442 -49.4407 -49.0784 -49.0283 -48.9519
   -16.2852  -4.1288  -0.6960  -0.1969   0.1701   0.7087   0.9784   1.3349
     1.5562   1.7278   2.0881   2.4217   2.5683   2.7242   2.8861   3.0443
     3.1382   3.3316   3.6587   3.8646   3.9561   4.1073   4.2832   4.5124
     4.7295   5.0112   5.2583   6.4321   8.6510   9.8277  11.1505  11.7332
    13.8163  14.3329  15.4540  16.3891

          k = 0.0625 0.3969-0.0673 (  4438 PWs)   bands (ev):

   -99.5038 -98.3557 -98.1881 -97.7553 -50.8574 -50.8552 -50.7598 -49.7095
   -49.6353 -49.6156 -49.5491 -49.4578 -49.4384 -49.1381 -49.0453 -48.9454
   -16.0970  -3.4829  -0.9723  -0.2399   0.5020   0.9042   1.1031   1.2004
     1.4263   1.6620   2.0597   2.3135   2.6920   2.9586   3.1156   3.4508
     3.6651   3.7935   4.0739   4.2585   4.4491   4.6108   4.9205   5.1324
     5.2955   5.5221   5.9337   7.4927   8.5456  10.2612  10.7867  13.0219
    13.9112  14.7525  15.4717  15.9305

          k = 0.0625 0.5413-0.0673 (  4394 PWs)   bands (ev):

   -99.5022 -98.3540 -98.1865 -97.7536 -50.8908 -50.8518 -50.7696 -49.7434
   -49.6335 -49.6252 -49.5798 -49.4674 -49.4352 -49.1717 -49.0550 -48.9417
   -15.9861  -3.1197  -1.4699  -0.2454   0.4571   0.8574   0.9538   1.0668
     1.2829   1.5766   2.0575   2.5135   2.8458   2.9174   3.1278   3.6194
     4.1058   4.2653   4.4971   4.7601   5.0936   5.2474   5.4737   5.5592
     5.8372   6.7595   7.4942   8.2212   9.3919  10.3689  10.5571  11.3071
    12.1675  12.6230  13.9355  15.5572

          k = 0.0625-0.4691-0.0673 (  4416 PWs)   bands (ev):

   -99.5027 -98.3546 -98.1870 -97.7542 -50.8787 -50.8534 -50.7662 -49.7315
   -49.6337 -49.6219 -49.5695 -49.4640 -49.4363 -49.1599 -49.0516 -48.9430
   -16.0254  -3.2507  -1.2830  -0.2434   0.4889   0.8953   1.0128   1.1298
     1.3346   1.6105   2.0525   2.4403   2.8045   2.9155   3.1077   3.6113
     3.8907   4.1570   4.3416   4.5724   4.8457   5.0650   5.1820   5.3552
     5.6116   6.2354   6.7932   7.5626   8.9991  10.5579  10.9657  11.9096
    12.6804  13.8726  14.8180  15.9167

          k = 0.0625-0.3248-0.0673 (  4460 PWs)   bands (ev):

   -99.5053 -98.3571 -98.1895 -97.7567 -50.8603 -50.8267 -50.7515 -49.6807
   -49.6384 -49.6073 -49.5214 -49.4496 -49.4411 -49.1095 -49.0372 -48.9485
   -16.1885  -3.7874  -0.6747  -0.2042   0.3219   0.8581   1.0971   1.2640
     1.5661   1.7190   2.0533   2.2529   2.7130   2.7971   3.0198   3.2581
     3.3341   3.5443   3.6926   3.9036   4.2082   4.3487   4.5620   4.7754
     5.0747   5.2055   5.3517   6.9677   8.8003   9.7506  10.9713  12.3468
    14.4941  15.0100  15.7887  16.2601

          k = 0.0625-0.1804-0.0673 (  4490 PWs)   bands (ev):

   -99.5082 -98.3600 -98.1925 -97.7596 -50.8683 -50.7652 -50.7341 -49.6463
   -49.6200 -49.5901 -49.4622 -49.4470 -49.4325 -49.0496 -49.0201 -48.9551
   -16.3726  -4.4558  -0.9760  -0.5751   0.2607   0.6125   0.9448   1.1571
     1.3751   1.8844   2.1900   2.5029   2.6238   2.7104   2.7935   3.1152
     3.1486   3.3012   3.5318   3.5954   3.7851   3.9873   4.2391   4.4090
     4.5815   4.9386   5.2578   5.9255   8.0831  10.2736  11.2866  11.3692
    13.2823  13.7956  15.0113  15.8234

          k = 0.0625-0.0361-0.0673 (  4520 PWs)   bands (ev):

   -99.5099 -98.3617 -98.1941 -97.7613 -50.8729 -50.7295 -50.7249 -49.6510
   -49.5853 -49.5805 -49.4508 -49.4277 -49.4229 -49.0153 -49.0105 -48.9588
   -16.4733  -4.8522  -1.4905  -0.9724  -0.2845   0.5295   1.0747   1.1393
     1.2432   2.1692   2.3627   2.3979   2.7710   2.8654   2.9359   3.0104
     3.1225   3.4290   3.4293   3.4914   3.5803   3.7728   4.3603   4.4003
     4.7950   4.9872   5.1960   5.3336   7.0421  10.6930  11.3605  11.4591
    12.7326  13.2291  14.4851  15.1673

          k = 0.1875 0.3248-0.0673 (  4450 PWs)   bands (ev):

   -99.5043 -98.3561 -98.1886 -97.7557 -50.8577 -50.8370 -50.7670 -49.6910
   -49.6359 -49.6226 -49.5314 -49.4646 -49.4391 -49.1198 -49.0522 -48.9463
   -16.1267  -3.5599  -0.5919  -0.0933   0.2806   0.9919   1.2228   1.4024
     1.6270   1.9350   2.1308   2.1902   2.5753   2.7224   2.7731   3.0878
     3.2303   3.4822   3.6773   3.7612   4.2516   4.5042   4.7273   5.1057
     5.2880   5.6217   6.0764   7.5857   8.7072  10.0156  10.5361  12.9255
    15.0189  15.5196  15.9071  16.1831

          k = 0.1875 0.4691-0.0673 (  4428 PWs)   bands (ev):

   -99.5022 -98.3540 -98.1865 -97.7536 -50.8690 -50.8518 -50.7917 -49.7221
   -49.6471 -49.6313 -49.5608 -49.4888 -49.4350 -49.1506 -49.0764 -48.9416
   -15.9877  -3.0763  -1.0200  -0.0564   0.2222   1.0249   1.3080   1.4276
     1.7286   1.9150   2.1479   2.3498   2.4925   2.8425   3.1122   3.1286
     3.5674   3.8330   4.0160   4.1650   4.4919   4.7593   5.0474   5.4982
     5.5500   7.3481   7.6106   8.2793   9.3591  10.0799  11.5181  12.2816
    13.0647  14.1972  14.9086  15.4186

          k = 0.1875 0.6134-0.0673 (  4432 PWs)   bands (ev):

   -99.5017 -98.3535 -98.1860 -97.7531 -50.8760 -50.8504 -50.7979 -49.7289
   -49.6532 -49.6305 -49.5672 -49.4948 -49.4340 -49.1574 -49.0825 -48.9405
   -15.9544  -2.9548  -1.1588  -0.0454   0.1908   0.9361   1.3491   1.3953
     1.6609   2.0010   2.1733   2.2909   2.5069   2.9594   3.0429   3.2522
     3.6237   4.0014   4.2066   4.3785   4.6963   4.8392   5.1390   5.4307
     5.8412   7.0392   8.6092   9.1986   9.6126  10.2739  11.0875  11.5684
    12.8308  13.1207  14.2237  15.5837

          k = 0.1875-0.3969-0.0673 (  4450 PWs)   bands (ev):

   -99.5031 -98.3549 -98.1874 -97.7545 -50.8562 -50.8537 -50.7807 -49.7089
   -49.6361 -49.6331 -49.5486 -49.4780 -49.4368 -49.1376 -49.0656 -48.9437
   -16.0485  -3.2891  -0.7999  -0.0705   0.2640   1.0828   1.2735   1.4616
     1.7323   1.8829   2.0310   2.4121   2.5535   2.6872   2.8884   3.2244
     3.3982   3.5961   3.6845   3.9852   4.3645   4.6999   4.7900   5.2825
     5.5023   6.4247   7.0455   8.1559   8.5863  10.0087  10.8782  13.5624
    14.1845  14.8087  15.6173  15.9692

          k = 0.1875-0.2526-0.0673 (  4452 PWs)   bands (ev):

   -99.5056 -98.3574 -98.1899 -97.7570 -50.8612 -50.8158 -50.7536 -49.6703
   -49.6391 -49.6091 -49.5113 -49.4514 -49.4417 -49.0992 -49.0389 -48.9492
   -16.2098  -3.8540  -0.5513  -0.0930   0.2282   0.8232   1.0354   1.3569
     1.6630   1.8743   2.0192   2.3380   2.4260   2.7375   2.9165   3.0362
     3.2110   3.3061   3.6062   3.7916   4.1773   4.3752   4.5128   4.7632
     5.0965   5.1493   5.3779   6.9148   8.9069   9.7033  10.8553  12.2289
    14.3481  14.8622  15.8768  16.8570

          k = 0.1875-0.1083-0.0673 (  4480 PWs)   bands (ev):

   -99.5077 -98.3595 -98.1920 -97.7592 -50.8670 -50.7760 -50.7367 -49.6450
   -49.6311 -49.5921 -49.4731 -49.4460 -49.4345 -49.0606 -49.0220 -48.9540
   -16.3421  -4.3410  -0.8654  -0.4448   0.2830   0.5471   1.0175   1.2981
     1.3697   1.7743   2.1678   2.5437   2.5771   2.6715   2.8336   3.1134
     3.1624   3.3475   3.6124   3.7078   3.7478   4.0420   4.2372   4.3375
     4.7502   4.8129   5.3079   6.0944   8.2994  10.0906  11.2985  11.4505
    13.4596  13.9746  15.1584  16.0130

          k = 0.3125 0.5413-0.0673 (  4434 PWs)   bands (ev):

   -99.5012 -98.3531 -98.1855 -97.7527 -50.8536 -50.8492 -50.8324 -49.7072
   -49.6869 -49.6283 -49.5472 -49.5276 -49.4330 -49.1359 -49.1159 -48.9395
   -15.9251  -2.8132  -0.8033  -0.3524   0.1054   1.2419   1.3317   1.7890
     2.0405   2.1420   2.2744   2.3572   2.4704   2.7555   3.0570   3.3589
     3.5561   3.7127   3.7638   4.0124   4.2600   4.8184   5.0971   5.2344
     6.3228   7.0021   8.4158   9.7757  10.7049  10.8746  11.1136  12.4720
    12.7287  13.4006  14.1875  14.8728

          k = 0.3125 0.6856-0.0673 (  4444 PWs)   bands (ev):

   -99.5015 -98.3534 -98.1858 -97.7530 -50.8642 -50.8501 -50.8129 -49.7177
   -49.6676 -49.6295 -49.5569 -49.5089 -49.4337 -49.1464 -49.0967 -48.9403
   -15.9471  -2.9094  -0.9322  -0.1056   0.0619   1.1367   1.3503   1.6531
     1.9032   2.1061   2.1983   2.3486   2.4783   2.8820   2.9321   3.2413
     3.5068   3.7834   3.9011   4.0304   4.3719   4.7820   5.1048   5.4238
     5.9199   7.3008   8.4686   8.8447   9.7233  10.9199  11.4452  12.1915
    12.9886  13.4765  14.4703  14.8119

          k = 0.3125-0.3248-0.0673 (  4428 PWs)   bands (ev):

   -99.5030 -98.3548 -98.1873 -97.7544 -50.8656 -50.8539 -50.7737 -49.7191
   -49.6334 -49.6289 -49.5581 -49.4709 -49.4366 -49.1476 -49.0585 -48.9434
   -16.0403  -3.2788  -1.0339  -0.1626   0.4526   0.9954   1.1000   1.3191
     1.4690   1.8178   2.0633   2.3163   2.6072   2.8761   3.0998   3.3267
     3.6354   3.8805   4.1474   4.2579   4.4610   4.7110   4.8990   5.2975
     5.5010   6.3480   6.9359   7.8260   8.8117  10.2388  10.9168  12.8349
    13.5295  14.3269  15.3574  16.1842

          k = 0.3125-0.1804-0.0673 (  4442 PWs)   bands (ev):

   -99.5046 -98.3565 -98.1889 -97.7561 -50.8587 -50.8413 -50.7532 -49.6956
   -49.6370 -49.6085 -49.5358 -49.4508 -49.4399 -49.1243 -49.0383 -48.9471
   -16.1489  -3.6598  -0.8398  -0.2581   0.4145   0.8495   1.1566   1.2176
     1.4512   1.6204   2.0880   2.2638   2.7296   3.0009   3.0734   3.4304
     3.4403   3.7689   3.9157   4.1570   4.4051   4.5047   4.6300   4.8373
     5.1496   5.3073   5.3512   7.1335   8.6493   9.9233  11.0023  12.6161
    14.7170  14.9387  15.2888  15.9927

          k = 0.4375 0.7578-0.0673 (  4420 PWs)   bands (ev):

   -99.5019 -98.3537 -98.1862 -97.7533 -50.8858 -50.8510 -50.7822 -49.7391
   -49.6372 -49.6321 -49.5761 -49.4791 -49.4346 -49.1675 -49.0667 -48.9410
   -15.9680  -3.0313  -1.3672  -0.1573   0.4337   0.8131   1.0745   1.2867
     1.3424   1.8018   2.1045   2.3531   2.7056   2.9009   3.1154   3.4972
     3.8798   4.1274   4.4612   4.8030   4.9039   5.0009   5.3509   5.5224
     5.6873   6.8504   8.4068   8.9932   9.6184   9.8348  10.5791  11.5533
    12.0504  13.2977  13.4737  15.9548

          k = 0.4375-0.2526-0.0673 (  4396 PWs)   bands (ev):

   -99.5025 -98.3543 -98.1868 -97.7539 -50.8873 -50.8526 -50.7649 -49.7406
   -49.6339 -49.6200 -49.5775 -49.4623 -49.4358 -49.1689 -49.0498 -48.9423
   -16.0063  -3.1970  -1.4393  -0.2783   0.4447   0.8213   1.0132   1.0429
     1.2746   1.5111   2.0338   2.5439   2.9196   2.9421   3.0994   3.6325
     4.1934   4.2790   4.4232   4.5786   5.1448   5.3106   5.4008   5.5654
     5.9591   6.3626   6.8957   7.5433   9.2350  10.7049  10.7288  11.5704
    11.9468  13.1265  14.5742  15.3023

          k = 0.1250 0.0000-0.0673 (  4518 PWs)   bands (ev):

   -99.5093 -98.3611 -98.1936 -97.7607 -50.8713 -50.7417 -50.7285 -49.6494
   -49.5976 -49.5838 -49.4496 -49.4397 -49.4263 -49.0274 -49.0138 -48.9575
   -16.4382  -4.7121  -1.2953  -0.8443  -0.0766   0.7453   0.9083   1.0524
     1.3156   2.0534   2.2771   2.4390   2.6976   2.8202   2.9316   3.0349
     3.2617   3.2976   3.4309   3.4828   3.6807   3.7517   4.3091   4.4325
     4.6834   4.9659   5.2508   5.4807   7.4780  10.6055  11.2515  11.4113
    12.9183  13.4227  14.6779  15.3957

          k =-0.1875 0.1804-0.0673 (  4466 PWs)   bands (ev):

   -99.5068 -98.3586 -98.1911 -97.7582 -50.8645 -50.7944 -50.7429 -49.6496
   -49.6421 -49.5984 -49.4908 -49.4442 -49.4407 -49.0784 -49.0283 -48.9519
   -16.2852  -4.1290  -0.6959  -0.1967   0.1710   0.7083   0.9784   1.3345
     1.5562   1.7284   2.0881   2.4218   2.5682   2.7242   2.8859   3.0444
     3.1379   3.3316   3.6585   3.8645   3.9560   4.1072   4.2832   4.5123
     4.7294   5.0110   5.2582   6.4314   8.6505   9.8290  11.1509  11.7330
    13.8163  14.3328  15.4540  16.3892

          k = 0.2500 0.0722-0.0673 (  4466 PWs)   bands (ev):

   -99.5068 -98.3586 -98.1911 -97.7582 -50.8645 -50.7941 -50.7431 -49.6496
   -49.6421 -49.5984 -49.4908 -49.4442 -49.4407 -49.0785 -49.0283 -48.9519
   -16.2852  -4.1290  -0.6960  -0.1964   0.1712   0.7088   0.9794   1.3330
     1.5562   1.7275   2.0881   2.4217   2.5682   2.7244   2.8863   3.0444
     3.1388   3.3315   3.6580   3.8646   3.9561   4.1071   4.2829   4.5123
     4.7294   5.0108   5.2583   6.4310   8.6504   9.8292  11.1523  11.7326
    13.8162  14.3326  15.4540  16.3887

          k =-0.3125 0.2526-0.0673 (  4438 PWs)   bands (ev):

   -99.5038 -98.3557 -98.1881 -97.7553 -50.8574 -50.8547 -50.7603 -49.7095
   -49.6353 -49.6156 -49.5491 -49.4578 -49.4384 -49.1381 -49.0453 -48.9454
   -16.0970  -3.4831  -0.9710  -0.2411   0.5017   0.9049   1.1036   1.2012
     1.4257   1.6620   2.0595   2.3143   2.6919   2.9585   3.1158   3.4504
     3.6646   3.7935   4.0735   4.2585   4.4489   4.6106   4.9205   5.1323
     5.2955   5.5216   5.9327   7.4902   8.5478  10.2612  10.7881  13.0220
    13.9106  14.7524  15.4714  15.9304

          k = 0.3750 0.1443-0.0673 (  4438 PWs)   bands (ev):

   -99.5038 -98.3557 -98.1881 -97.7553 -50.8573 -50.8546 -50.7604 -49.7095
   -49.6353 -49.6156 -49.5491 -49.4578 -49.4384 -49.1381 -49.0453 -48.9454
   -16.0970  -3.4829  -0.9712  -0.2410   0.5026   0.9056   1.1001   1.2017
     1.4260   1.6621   2.0595   2.3139   2.6919   2.9587   3.1155   3.4504
     3.6654   3.7944   4.0731   4.2584   4.4492   4.6107   4.9204   5.1323
     5.2954   5.5216   5.9326   7.4901   8.5483  10.2615  10.7877  13.0219
    13.9108  14.7524  15.4715  15.9301

          k =-0.4375 0.3248-0.0673 (  4394 PWs)   bands (ev):

   -99.5022 -98.3540 -98.1865 -97.7536 -50.8902 -50.8518 -50.7702 -49.7434
   -49.6335 -49.6252 -49.5798 -49.4674 -49.4352 -49.1717 -49.0550 -48.9417
   -15.9861  -3.1194  -1.4692  -0.2469   0.4582   0.8578   0.9528   1.0674
     1.2828   1.5767   2.0569   2.5132   2.8456   2.9189   3.1273   3.6195
     4.1058   4.2649   4.4976   4.7594   5.0935   5.2474   5.4737   5.5591
     5.8372   6.7567   7.4948   8.2214   9.3918  10.3700  10.5570  11.3071
    12.1680  12.6226  13.9352  15.5573

          k = 0.5000 0.2165-0.0673 (  4394 PWs)   bands (ev):

   -99.5022 -98.3540 -98.1865 -97.7536 -50.8901 -50.8518 -50.7702 -49.7434
   -49.6335 -49.6252 -49.5798 -49.4674 -49.4352 -49.1717 -49.0550 -48.9417
   -15.9861  -3.1193  -1.4693  -0.2468   0.4585   0.8579   0.9523   1.0673
     1.2828   1.5767   2.0569   2.5131   2.8459   2.9184   3.1273   3.6196
     4.1056   4.2649   4.4977   4.7597   5.0936   5.2474   5.4737   5.5592
     5.8372   6.7569   7.4948   8.2214   9.3919  10.3696  10.5573  11.3072
    12.1677  12.6225  13.9351  15.5573

          k = 0.4375-0.1804-0.0673 (  4416 PWs)   bands (ev):

   -99.5027 -98.3546 -98.1870 -97.7542 -50.8780 -50.8534 -50.7668 -49.7315
   -49.6337 -49.6219 -49.5695 -49.4641 -49.4363 -49.1599 -49.0516 -48.9430
   -16.0254  -3.2504  -1.2822  -0.2447   0.4901   0.8962   1.0104   1.1305
     1.3345   1.6106   2.0521   2.4405   2.8051   2.9155   3.1073   3.6115
     3.8904   4.1575   4.3414   4.5724   4.8458   5.0650   5.1819   5.3550
     5.6115   6.2345   6.7912   7.5633   9.0002  10.5595  10.9647  11.9094
    12.6805  13.8724  14.8177  15.9164

          k =-0.3750-0.2887-0.0673 (  4416 PWs)   bands (ev):

   -99.5027 -98.3546 -98.1870 -97.7542 -50.8781 -50.8534 -50.7667 -49.7315
   -49.6337 -49.6219 -49.5695 -49.4641 -49.4363 -49.1599 -49.0516 -48.9430
   -16.0254  -3.2506  -1.2821  -0.2448   0.4893   0.8958   1.0123   1.1308
     1.3343   1.6106   2.0520   2.4408   2.8051   2.9157   3.1076   3.6112
     3.8907   4.1567   4.3415   4.5720   4.8458   5.0649   5.1819   5.3550
     5.6115   6.2344   6.7912   7.5628   9.0002  10.5587  10.9659  11.9096
    12.6803  13.8723  14.8179  15.9170

          k = 0.3125-0.1083-0.0673 (  4460 PWs)   bands (ev):

   -99.5053 -98.3571 -98.1895 -97.7567 -50.8603 -50.8261 -50.7521 -49.6807
   -49.6384 -49.6073 -49.5214 -49.4496 -49.4411 -49.1096 -49.0371 -48.9485
   -16.1885  -3.7875  -0.6738  -0.2043   0.3218   0.8592   1.0971   1.2629
     1.5657   1.7191   2.0533   2.2529   2.7130   2.7969   3.0202   3.2587
     3.3345   3.5435   3.6926   3.9036   4.2078   4.3485   4.5619   4.7754
     5.0745   5.2053   5.3511   6.9659   8.8008   9.7517  10.9729  12.3465
    14.4942  15.0097  15.7886  16.2599

          k =-0.2500-0.2165-0.0673 (  4460 PWs)   bands (ev):

   -99.5053 -98.3571 -98.1895 -97.7567 -50.8603 -50.8263 -50.7519 -49.6807
   -49.6384 -49.6073 -49.5214 -49.4496 -49.4411 -49.1095 -49.0371 -48.9485
   -16.1885  -3.7876  -0.6737  -0.2045   0.3215   0.8578   1.0987   1.2634
     1.5661   1.7192   2.0536   2.2529   2.7130   2.7970   3.0200   3.2574
     3.3340   3.5440   3.6926   3.9036   4.2081   4.3484   4.5618   4.7753
     5.0746   5.2054   5.3510   6.9662   8.8004   9.7519  10.9721  12.3467
    14.4942  15.0099  15.7885  16.2599

          k = 0.1875-0.0361-0.0673 (  4490 PWs)   bands (ev):

   -99.5082 -98.3600 -98.1925 -97.7596 -50.8683 -50.7645 -50.7348 -49.6463
   -49.6200 -49.5901 -49.4622 -49.4470 -49.4325 -49.0496 -49.0200 -48.9551
   -16.3726  -4.4560  -0.9759  -0.5753   0.2614   0.6135   0.9460   1.1572
     1.3724   1.8848   2.1901   2.5027   2.6238   2.7102   2.7934   3.1157
     3.1491   3.3012   3.5318   3.5950   3.7847   3.9873   4.2390   4.4088
     4.5813   4.9386   5.2577   5.9249   8.0828  10.2743  11.2880  11.3687
    13.2822  13.7954  15.0112  15.8230

          k =-0.1250-0.1443-0.0673 (  4490 PWs)   bands (ev):

   -99.5082 -98.3600 -98.1925 -97.7596 -50.8683 -50.7649 -50.7344 -49.6463
   -49.6200 -49.5901 -49.4622 -49.4470 -49.4325 -49.0496 -49.0201 -48.9551
   -16.3726  -4.4559  -0.9759  -0.5752   0.2610   0.6137   0.9437   1.1570
     1.3750   1.8847   2.1903   2.5028   2.6237   2.7102   2.7934   3.1154
     3.1486   3.3012   3.5318   3.5954   3.7847   3.9873   4.2391   4.4090
     4.5813   4.9386   5.2578   5.9253   8.0829  10.2741  11.2865  11.3694
    13.2823  13.7956  15.0112  15.8234

          k = 0.0000-0.0722-0.0673 (  4520 PWs)   bands (ev):

   -99.5099 -98.3617 -98.1941 -97.7613 -50.8729 -50.7300 -50.7243 -49.6510
   -49.5853 -49.5805 -49.4508 -49.4277 -49.4229 -49.0152 -49.0105 -48.9588
   -16.4733  -4.8522  -1.4905  -0.9724  -0.2845   0.5295   1.0717   1.1416
     1.2438   2.1692   2.3608   2.4000   2.7710   2.8656   2.9355   3.0105
     3.1225   3.4287   3.4293   3.4919   3.5803   3.7728   4.3602   4.4003
     4.7950   4.9873   5.1959   5.3336   7.0422  10.6928  11.3619  11.4576
    12.7326  13.2292  14.4851  15.1674

          k = 0.3750 0.0000-0.0673 (  4450 PWs)   bands (ev):

   -99.5043 -98.3561 -98.1886 -97.7557 -50.8577 -50.8364 -50.7676 -49.6910
   -49.6359 -49.6226 -49.5314 -49.4646 -49.4391 -49.1198 -49.0521 -48.9463
   -16.1267  -3.5596  -0.5914  -0.0930   0.2799   0.9924   1.2229   1.4000
     1.6270   1.9351   2.1308   2.1902   2.5752   2.7222   2.7733   3.0879
     3.2304   3.4822   3.6772   3.7625   4.2516   4.5040   4.7273   5.1055
     5.2880   5.6216   6.0759   7.5842   8.7095  10.0150  10.5371  12.9255
    15.0191  15.5193  15.9065  16.1842

          k =-0.3125 0.3969-0.0673 (  4428 PWs)   bands (ev):

   -99.5022 -98.3540 -98.1865 -97.7536 -50.8686 -50.8518 -50.7921 -49.7221
   -49.6471 -49.6313 -49.5608 -49.4888 -49.4350 -49.1506 -49.0764 -48.9416
   -15.9877  -3.0762  -1.0194  -0.0566   0.2206   1.0261   1.3083   1.4272
     1.7287   1.9153   2.1480   2.3501   2.4926   2.8425   3.1120   3.1286
     3.5669   3.8335   4.0157   4.1648   4.4919   4.7592   5.0474   5.4979
     5.5500   7.3464   7.6109   8.2804   9.3595  10.0800  11.5180  12.2813
    13.0648  14.1970  14.9091  15.4189

          k = 0.5000 0.0722-0.0673 (  4428 PWs)   bands (ev):

   -99.5022 -98.3540 -98.1865 -97.7536 -50.8683 -50.8518 -50.7924 -49.7221
   -49.6471 -49.6313 -49.5608 -49.4888 -49.4350 -49.1506 -49.0764 -48.9416
   -15.9877  -3.0755  -1.0195  -0.0566   0.2208   1.0246   1.3080   1.4275
     1.7286   1.9151   2.1478   2.3499   2.4926   2.8425   3.1120   3.1284
     3.5672   3.8331   4.0158   4.1649   4.4921   4.7594   5.0480   5.4977
     5.5501   7.3472   7.6129   8.2799   9.3582  10.0800  11.5178  12.2809
    13.0650  14.1968  14.9081  15.4175

          k =-0.4375 0.4691-0.0673 (  4432 PWs)   bands (ev):

   -99.5017 -98.3535 -98.1860 -97.7531 -50.8753 -50.8504 -50.7985 -49.7289
   -49.6532 -49.6305 -49.5672 -49.4948 -49.4340 -49.1574 -49.0825 -48.9405
   -15.9544  -2.9541  -1.1586  -0.0457   0.1894   0.9363   1.3494   1.3947
     1.6610   2.0007   2.1731   2.2910   2.5076   2.9594   3.0427   3.2523
     3.6236   4.0009   4.2069   4.3784   4.6964   4.8393   5.1390   5.4307
     5.8402   7.0416   8.6091   9.1979   9.6125  10.2740  11.0869  11.5686
    12.8308  13.1204  14.2230  15.5840

          k = 0.6250 0.1443-0.0673 (  4432 PWs)   bands (ev):

   -99.5017 -98.3535 -98.1860 -97.7531 -50.8755 -50.8504 -50.7984 -49.7289
   -49.6532 -49.6305 -49.5672 -49.4948 -49.4340 -49.1574 -49.0825 -48.9405
   -15.9544  -2.9544  -1.1584  -0.0456   0.1892   0.9368   1.3496   1.3945
     1.6610   2.0008   2.1732   2.2910   2.5076   2.9595   3.0428   3.2524
     3.6234   4.0011   4.2068   4.3783   4.6964   4.8391   5.1390   5.4307
     5.8402   7.0400   8.6093   9.1986   9.6125  10.2739  11.0869  11.5686
    12.8305  13.1206  14.2242  15.5835

          k = 0.4375-0.0361-0.0673 (  4450 PWs)   bands (ev):

   -99.5031 -98.3549 -98.1874 -97.7545 -50.8557 -50.8535 -50.7813 -49.7089
   -49.6361 -49.6331 -49.5486 -49.4780 -49.4368 -49.1376 -49.0656 -48.9437
   -16.0485  -3.2885  -0.7993  -0.0705   0.2625   1.0834   1.2721   1.4614
     1.7322   1.8830   2.0310   2.4121   2.5534   2.6872   2.8885   3.2241
     3.3982   3.5964   3.6845   3.9856   4.3646   4.7006   4.7902   5.2820
     5.5023   6.4245   7.0445   8.1567   8.5876  10.0090  10.8774  13.5627
    14.1841  14.8087  15.6158  15.9693

          k =-0.2500-0.3608-0.0673 (  4450 PWs)   bands (ev):

   -99.5031 -98.3549 -98.1874 -97.7545 -50.8561 -50.8535 -50.7809 -49.7089
   -49.6362 -49.6331 -49.5486 -49.4780 -49.4368 -49.1376 -49.0656 -48.9437
   -16.0485  -3.2891  -0.7994  -0.0707   0.2628   1.0843   1.2734   1.4612
     1.7324   1.8830   2.0311   2.4122   2.5535   2.6871   2.8884   3.2241
     3.3983   3.5966   3.6842   3.9850   4.3644   4.6999   4.7899   5.2824
     5.5023   6.4246   7.0450   8.1546   8.5880  10.0086  10.8784  13.5625
    14.1839  14.8088  15.6175  15.9691

          k = 0.3125 0.0361-0.0673 (  4452 PWs)   bands (ev):

   -99.5056 -98.3574 -98.1899 -97.7570 -50.8612 -50.8153 -50.7540 -49.6703
   -49.6391 -49.6091 -49.5113 -49.4514 -49.4417 -49.0992 -49.0389 -48.9492
   -16.2098  -3.8539  -0.5513  -0.0923   0.2282   0.8242   1.0347   1.3561
     1.6614   1.8743   2.0192   2.3380   2.4260   2.7373   2.9169   3.0366
     3.2120   3.3068   3.6057   3.7918   4.1772   4.3748   4.5128   4.7632
     5.0965   5.1493   5.3776   6.9140   8.9074   9.7032  10.8570  12.2286
    14.3481  14.8619  15.8770  16.8566

          k =-0.1250-0.2887-0.0673 (  4452 PWs)   bands (ev):

   -99.5056 -98.3574 -98.1899 -97.7570 -50.8612 -50.8160 -50.7534 -49.6703
   -49.6391 -49.6091 -49.5113 -49.4514 -49.4417 -49.0992 -49.0389 -48.9492
   -16.2098  -3.8539  -0.5515  -0.0934   0.2287   0.8239   1.0342   1.3573
     1.6624   1.8743   2.0192   2.3380   2.4261   2.7373   2.9167   3.0364
     3.2110   3.3063   3.6062   3.7918   4.1772   4.3754   4.5129   4.7633
     5.0965   5.1493   5.3782   6.9153   8.9071   9.7025  10.8552  12.2289
    14.3481  14.8622  15.8768  16.8570

          k = 0.0000-0.2165-0.0673 (  4480 PWs)   bands (ev):

   -99.5077 -98.3595 -98.1920 -97.7592 -50.8670 -50.7766 -50.7361 -49.6450
   -49.6311 -49.5921 -49.4731 -49.4460 -49.4345 -49.0606 -49.0220 -48.9540
   -16.3421  -4.3408  -0.8655  -0.4447   0.2812   0.5470   1.0174   1.2981
     1.3716   1.7736   2.1674   2.5436   2.5773   2.6717   2.8337   3.1134
     3.1620   3.3477   3.6124   3.7078   3.7485   4.0420   4.2374   4.3376
     4.7503   4.8134   5.3080   6.0951   8.2998  10.0894  11.2972  11.4513
    13.4597  13.9748  15.1584  16.0131

          k = 0.6250 0.0000-0.0673 (  4434 PWs)   bands (ev):

   -99.5012 -98.3531 -98.1855 -97.7527 -50.8530 -50.8492 -50.8330 -49.7072
   -49.6869 -49.6283 -49.5472 -49.5276 -49.4330 -49.1359 -49.1159 -48.9395
   -15.9251  -2.8129  -0.8031  -0.3531   0.1055   1.2414   1.3316   1.7891
     2.0406   2.1421   2.2744   2.3572   2.4704   2.7555   3.0571   3.3587
     3.5561   3.7129   3.7638   4.0123   4.2601   4.8185   5.0970   5.2343
     6.3209   7.0063   8.4140   9.7757  10.7047  10.8746  11.1139  12.4718
    12.7282  13.4009  14.1871  14.8720

          k =-0.4375 0.6134-0.0673 (  4444 PWs)   bands (ev):

   -99.5015 -98.3534 -98.1858 -97.7530 -50.8638 -50.8501 -50.8133 -49.7177
   -49.6676 -49.6295 -49.5569 -49.5089 -49.4337 -49.1464 -49.0967 -48.9403
   -15.9471  -2.9088  -0.9322  -0.1065   0.0623   1.1360   1.3499   1.6531
     1.9031   2.1061   2.1983   2.3486   2.4782   2.8819   2.9321   3.2413
     3.5069   3.7834   3.9011   4.0304   4.3720   4.7822   5.1049   5.4237
     5.9193   7.3054   8.4667   8.8435   9.7235  10.9198  11.4451  12.1919
    12.9882  13.4759  14.4683  14.8129

          k = 0.7500 0.0722-0.0673 (  4444 PWs)   bands (ev):

   -99.5015 -98.3534 -98.1858 -97.7530 -50.8645 -50.8501 -50.8126 -49.7177
   -49.6676 -49.6295 -49.5569 -49.5089 -49.4337 -49.1464 -49.0967 -48.9403
   -15.9471  -2.9096  -0.9325  -0.1054   0.0625   1.1366   1.3504   1.6531
     1.9031   2.1059   2.1984   2.3484   2.4782   2.8819   2.9321   3.2416
     3.5069   3.7831   3.9012   4.0306   4.3719   4.7820   5.1048   5.4238
     5.9203   7.3003   8.4684   8.8449   9.7234  10.9202  11.4449  12.1920
    12.9887  13.4763  14.4697  14.8123

          k = 0.4375 0.1083-0.0673 (  4428 PWs)   bands (ev):

   -99.5030 -98.3548 -98.1873 -97.7544 -50.8653 -50.8539 -50.7740 -49.7191
   -49.6334 -49.6289 -49.5580 -49.4709 -49.4366 -49.1476 -49.0585 -48.9434
   -16.0403  -3.2783  -1.0341  -0.1624   0.4539   0.9924   1.0997   1.3196
     1.4689   1.8179   2.0631   2.3158   2.6073   2.8763   3.0996   3.3265
     3.6360   3.8804   4.1477   4.2582   4.4613   4.7116   4.8990   5.2974
     5.5009   6.3479   6.9357   7.8272   8.8116  10.2396  10.9154  12.8348
    13.5298  14.3270  15.3567  16.1844

          k =-0.1250-0.4330-0.0673 (  4428 PWs)   bands (ev):

   -99.5030 -98.3548 -98.1873 -97.7544 -50.8660 -50.8539 -50.7733 -49.7191
   -49.6334 -49.6289 -49.5581 -49.4709 -49.4366 -49.1476 -49.0585 -48.9434
   -16.0403  -3.2787  -1.0348  -0.1616   0.4541   0.9936   1.0993   1.3194
     1.4691   1.8178   2.0633   2.3156   2.6074   2.8762   3.0996   3.3268
     3.6361   3.8802   4.1476   4.2583   4.4610   4.7112   4.8991   5.2978
     5.5010   6.3485   6.9372   7.8267   8.8100  10.2387  10.9163  12.8350
    13.5296  14.3274  15.3573  16.1846

          k = 0.0000-0.3608-0.0673 (  4442 PWs)   bands (ev):

   -99.5046 -98.3565 -98.1889 -97.7561 -50.8587 -50.8419 -50.7526 -49.6956
   -49.6370 -49.6085 -49.5358 -49.4508 -49.4399 -49.1243 -49.0383 -48.9471
   -16.1489  -3.6596  -0.8411  -0.2571   0.4145   0.8484   1.1549   1.2197
     1.4513   1.6203   2.0880   2.2632   2.7297   3.0006   3.0734   3.4303
     3.4408   3.7689   3.9163   4.1571   4.4051   4.5049   4.6300   4.8373
     5.1496   5.3073   5.3526   7.1358   8.6480   9.9225  11.0010  12.6162
    14.7171  14.9391  15.2890  15.9925

          k = 0.8750 0.0000-0.0673 (  4420 PWs)   bands (ev):

   -99.5019 -98.3537 -98.1862 -97.7533 -50.8864 -50.8510 -50.7816 -49.7391
   -49.6372 -49.6321 -49.5761 -49.4791 -49.4346 -49.1675 -49.0667 -48.9410
   -15.9680  -3.0318  -1.3676  -0.1562   0.4339   0.8133   1.0741   1.2864
     1.3427   1.8017   2.1053   2.3533   2.7045   2.9007   3.1156   3.4969
     3.8800   4.1281   4.4607   4.8035   4.9038   5.0008   5.3509   5.5225
     5.6877   6.8508   8.4068   8.9933   9.6184   9.8342  10.5795  11.5535
    12.0500  13.2976  13.4744  15.9548

          k = 0.0000-0.5052-0.0673 (  4396 PWs)   bands (ev):

   -99.5025 -98.3543 -98.1868 -97.7539 -50.8879 -50.8526 -50.7643 -49.7406
   -49.6339 -49.6200 -49.5775 -49.4623 -49.4358 -49.1689 -49.0498 -48.9423
   -16.0063  -3.1972  -1.4401  -0.2768   0.4435   0.8205   1.0122   1.0449
     1.2747   1.5109   2.0343   2.5438   2.9190   2.9419   3.0998   3.6326
     4.1933   4.2785   4.4233   4.5793   5.1448   5.3105   5.4009   5.5654
     5.9591   6.3649   6.8973   7.5422   9.2346  10.7033  10.7291  11.5708
    11.9465  13.1269  14.5745  15.3023

     the Fermi energy is     7.2650 ev

!    total energy              =   -1158.82182908 Ry
     Harris-Foulkes estimate   =   -1158.82182909 Ry
     estimated scf accuracy    <       0.00000002 Ry

     The total energy is the sum of the following terms:

     one-electron contribution =   -5790.98637743 Ry
     hartree contribution      =    2899.84155380 Ry
     xc contribution           =    -113.31833865 Ry
     ewald contribution        =    1861.34748753 Ry
     one-center paw contrib.   =     -15.70537785 Ry
     smearing contrib. (-TS)   =      -0.00077648 Ry

     convergence has been achieved in  16 iterations

     Writing output data file CO_Au_hollow.save

     init_run     :     29.80s CPU     15.44s WALL (       1 calls)
     electrons    :   1857.68s CPU    933.05s WALL (       1 calls)

     Called by init_run:
     wfcinit      :     27.90s CPU     13.55s WALL (       1 calls)
     potinit      :      0.50s CPU      0.52s WALL (       1 calls)

     Called by electrons:
     c_bands      :   1617.07s CPU    798.87s WALL (      17 calls)
     sum_band     :    231.41s CPU    124.79s WALL (      17 calls)
     v_of_rho     :      2.95s CPU      2.79s WALL (      17 calls)
     newd         :      4.59s CPU      4.96s WALL (      17 calls)
     mix_rho      :      0.24s CPU      0.23s WALL (      17 calls)

     Called by c_bands:
     init_us_2    :     19.16s CPU     11.64s WALL (    1820 calls)
     cegterg      :   1508.68s CPU    735.12s WALL (     884 calls)

     Called by *egterg:
     h_psi        :    841.56s CPU    495.96s WALL (    3260 calls)
     s_psi        :    181.30s CPU     59.40s WALL (    3260 calls)
     g_psi        :      4.41s CPU      2.23s WALL (    2324 calls)
     cdiaghg      :     58.03s CPU     29.85s WALL (    3156 calls)

     Called by h_psi:
     add_vuspsi   :    184.77s CPU     61.19s WALL (    3260 calls)

     General routines
     calbec       :    254.85s CPU     87.90s WALL (    4144 calls)
     fft          :      0.80s CPU      0.77s WALL (     272 calls)
     ffts         :      0.09s CPU      0.07s WALL (      34 calls)
     fftw         :    514.48s CPU    389.16s WALL (  282326 calls)
     interpolate  :      0.31s CPU      0.23s WALL (      34 calls)
     davcio       :      0.04s CPU      0.22s WALL (      52 calls)

     Parallel routines
     fft_scatter  :     44.00s CPU     32.39s WALL (  282632 calls)

     PAW routines
     PAW_pot      :      1.65s CPU      1.65s WALL (      17 calls)
     PAW_symme    :      0.00s CPU      0.00s WALL (      34 calls)

     PWSCF        : 31m27.93s CPU    15m49.24s WALL


   This run was terminated on:  14:37: 2  18Jun2018            

=------------------------------------------------------------------------------=
   JOB DONE.
=------------------------------------------------------------------------------=
