
     Program PWSCF v.5.1 starts on 18Jun2018 at 11:39:37 

     This program is part of the open-source Quantum ESPRESSO suite
     for quantum simulation of materials; please cite
         "P. Giannozzi et al., J. Phys.:Condens. Matter 21 395502 (2009);
          URL http://www.quantum-espresso.org", 
     in publications or presentations arising from this work. More details at
     http://www.quantum-espresso.org/quote

     Parallel version (MPI), running on     1 processors
     Waiting for input...
     Reading input from standard input
Warning: card &CELL ignored
Warning: card / ignored

     Current dimensions of program PWSCF are:
     Max number of different atomic species (ntypx) = 10
     Max number of k-points (npk) =  40000
     Max angular momentum in pseudopotentials (lmaxx) =  3
               file C.pbe-n-kjpaw_psl.1.0.0.UPF: wavefunction(s)  2S 2P renormalized
               file O.pbe-n-kjpaw_psl.0.1.U: wavefunction(s)  2P renormalized

     Subspace diagonalization in iterative solution of the eigenvalue problem:
     a serial algorithm will be used


     G-vector sticks info
     --------------------
     sticks:   dense  smooth     PW     G-vecs:    dense   smooth      PW
     Sum         649     313    109               100611    35335    6935



     bravais-lattice index     =            4
     lattice parameter (alat)  =       5.4490  a.u.
     unit-cell volume          =    1040.6255 (a.u.)^3
     number of atoms/cell      =            6
     number of atomic types    =            3
     number of electrons       =        86.00
     number of Kohn-Sham states=           52
     kinetic-energy cutoff     =      40.0000  Ry
     charge density cutoff     =     320.0000  Ry
     convergence threshold     =      1.0E-06
     mixing beta               =       0.7000
     number of iterations used =            8  plain     mixing
     Exchange-correlation      =  SLA  PW   PBX  PBC ( 1  4  3  4 0)
     nstep                     =           50


     celldm(1)=   5.449000  celldm(2)=   0.000000  celldm(3)=   7.427000
     celldm(4)=   0.000000  celldm(5)=   0.000000  celldm(6)=   0.000000

     crystal axes: (cart. coord. in units of alat)
               a(1) = (   1.000000   0.000000   0.000000 )  
               a(2) = (  -0.500000   0.866025   0.000000 )  
               a(3) = (   0.000000   0.000000   7.427000 )  

     reciprocal axes: (cart. coord. in units 2 pi/alat)
               b(1) = (  1.000000  0.577350 -0.000000 )  
               b(2) = (  0.000000  1.154701  0.000000 )  
               b(3) = (  0.000000 -0.000000  0.134644 )  


     PseudoPot. # 1 for Au read from file:
     /home/oropebuen/Documents/Job/Absortion/SSSP_efficiency_pseudos/Au_ONCV_PBE-1.0.upf
     MD5 check sum: 1009843a674e36925f098327e430af60
     Pseudo is Norm-conserving, Zval = 19.0
     Generated using ONCVPSP code by D. R. Hamann
     Using radial grid of  602 points,  8 beta functions with: 
                l(1) =   0
                l(2) =   0
                l(3) =   1
                l(4) =   1
                l(5) =   2
                l(6) =   2
                l(7) =   3
                l(8) =   3

     PseudoPot. # 2 for  C read from file:
     /home/oropebuen/Documents/Job/Absortion/SSSP_efficiency_pseudos/C.pbe-n-kjpaw_psl.1.0.0.UPF
     MD5 check sum: 8e281b34a927efac7e739263a90d7aed
     Pseudo is Projector augmented-wave + core cor, Zval =  4.0
     Generated using "atomic" code by A. Dal Corso  v.5.1
     Shape of augmentation charge: PSQ
     Using radial grid of 1073 points,  4 beta functions with: 
                l(1) =   0
                l(2) =   0
                l(3) =   1
                l(4) =   1
     Q(r) pseudized with 0 coefficients 


     PseudoPot. # 3 for  O read from file:
     /home/oropebuen/Documents/Job/Absortion/SSSP_efficiency_pseudos/O.pbe-n-kjpaw_psl.0.1.U
     MD5 check sum: 3f94a2996a3169367d6eb21d9b593f20
     Pseudo is Projector augmented-wave + core cor, Zval =  6.0
     Generated using "atomic" code by A. Dal Corso  v.5.0.99 svn rev. 10869
     Shape of augmentation charge: BESSEL
     Using radial grid of 1095 points,  4 beta functions with: 
                l(1) =   0
                l(2) =   0
                l(3) =   1
                l(4) =   1
     Q(r) pseudized with 0 coefficients 


     atomic species   valence    mass     pseudopotential
        Au            19.00   196.96600     Au( 1.00)
        C              4.00    12.01070      C( 1.00)
        O              6.00    15.99940      O( 1.00)

      2 Sym. Ops. (no inversion) found



   Cartesian axes

     site n.     atom                  positions (alat units)
         1           Au  tau(   1) = (   0.0000000   0.0000000   0.0000000  )
         2           Au  tau(   2) = (   0.5000000   0.2886750   0.8164970  )
         3           Au  tau(   3) = (   0.0000000   0.5773500   1.6329930  )
         4           Au  tau(   4) = (   0.0000000   0.0000000   2.4494900  )
         5           C   tau(   5) = (   0.5000000   0.2886750   3.0737340  )
         6           O   tau(   6) = (   0.5000010   0.2896750   3.4648430  )

     number of k points=    52  gaussian smearing, width (Ry)=  0.0100
                       cart. coord. in units 2pi/alat
        k(    1) = (   0.0625000   0.1082532  -0.0673219), wk =   0.0416667
        k(    2) = (   0.0625000   0.2525907  -0.0673219), wk =   0.0416667
        k(    3) = (   0.0625000   0.3969283  -0.0673219), wk =   0.0416667
        k(    4) = (   0.0625000   0.5412659  -0.0673219), wk =   0.0416667
        k(    5) = (   0.0625000  -0.4690971  -0.0673219), wk =   0.0416667
        k(    6) = (   0.0625000  -0.3247595  -0.0673219), wk =   0.0416667
        k(    7) = (   0.0625000  -0.1804220  -0.0673219), wk =   0.0416667
        k(    8) = (   0.0625000  -0.0360844  -0.0673219), wk =   0.0416667
        k(    9) = (   0.1875000   0.3247595  -0.0673219), wk =   0.0416667
        k(   10) = (   0.1875000   0.4690971  -0.0673219), wk =   0.0416667
        k(   11) = (   0.1875000   0.6134347  -0.0673219), wk =   0.0416667
        k(   12) = (   0.1875000  -0.3969283  -0.0673219), wk =   0.0416667
        k(   13) = (   0.1875000  -0.2525907  -0.0673219), wk =   0.0416667
        k(   14) = (   0.1875000  -0.1082532  -0.0673219), wk =   0.0416667
        k(   15) = (   0.3125000   0.5412659  -0.0673219), wk =   0.0416667
        k(   16) = (   0.3125000   0.6856034  -0.0673219), wk =   0.0416667
        k(   17) = (   0.3125000  -0.3247595  -0.0673219), wk =   0.0416667
        k(   18) = (   0.3125000  -0.1804220  -0.0673219), wk =   0.0416667
        k(   19) = (   0.4375000   0.7577722  -0.0673219), wk =   0.0416667
        k(   20) = (   0.4375000  -0.2525907  -0.0673219), wk =   0.0416667
        k(   21) = (   0.1250000   0.0000000  -0.0673219), wk =   0.0208333
        k(   22) = (  -0.1875000   0.1804220  -0.0673219), wk =   0.0416667
        k(   23) = (   0.2500000   0.0721688  -0.0673219), wk =   0.0416667
        k(   24) = (  -0.3125000   0.2525907  -0.0673219), wk =   0.0416667
        k(   25) = (   0.3750000   0.1443376  -0.0673219), wk =   0.0416667
        k(   26) = (  -0.4375000   0.3247595  -0.0673219), wk =   0.0416667
        k(   27) = (   0.5000000   0.2165064  -0.0673219), wk =   0.0416667
        k(   28) = (   0.4375000  -0.1804220  -0.0673219), wk =   0.0416667
        k(   29) = (  -0.3750000  -0.2886751  -0.0673219), wk =   0.0416667
        k(   30) = (   0.3125000  -0.1082532  -0.0673219), wk =   0.0416667
        k(   31) = (  -0.2500000  -0.2165064  -0.0673219), wk =   0.0416667
        k(   32) = (   0.1875000  -0.0360844  -0.0673219), wk =   0.0416667
        k(   33) = (  -0.1250000  -0.1443376  -0.0673219), wk =   0.0416667
        k(   34) = (   0.0000000  -0.0721688  -0.0673219), wk =   0.0208333
        k(   35) = (   0.3750000   0.0000000  -0.0673219), wk =   0.0208333
        k(   36) = (  -0.3125000   0.3969283  -0.0673219), wk =   0.0416667
        k(   37) = (   0.5000000   0.0721688  -0.0673219), wk =   0.0416667
        k(   38) = (  -0.4375000   0.4690971  -0.0673219), wk =   0.0416667
        k(   39) = (   0.6250000   0.1443376  -0.0673219), wk =   0.0416667
        k(   40) = (   0.4375000  -0.0360844  -0.0673219), wk =   0.0416667
        k(   41) = (  -0.2500000  -0.3608439  -0.0673219), wk =   0.0416667
        k(   42) = (   0.3125000   0.0360844  -0.0673219), wk =   0.0416667
        k(   43) = (  -0.1250000  -0.2886751  -0.0673219), wk =   0.0416667
        k(   44) = (   0.0000000  -0.2165064  -0.0673219), wk =   0.0208333
        k(   45) = (   0.6250000   0.0000000  -0.0673219), wk =   0.0208333
        k(   46) = (  -0.4375000   0.6134347  -0.0673219), wk =   0.0416667
        k(   47) = (   0.7500000   0.0721688  -0.0673219), wk =   0.0416667
        k(   48) = (   0.4375000   0.1082532  -0.0673219), wk =   0.0416667
        k(   49) = (  -0.1250000  -0.4330127  -0.0673219), wk =   0.0416667
        k(   50) = (   0.0000000  -0.3608439  -0.0673219), wk =   0.0208333
        k(   51) = (   0.8750000   0.0000000  -0.0673219), wk =   0.0208333
        k(   52) = (   0.0000000  -0.5051815  -0.0673219), wk =   0.0208333

     Dense  grid:   100611 G-vectors     FFT dimensions: (  32,  32, 240)

     Smooth grid:    35335 G-vectors     FFT dimensions: (  24,  24, 180)

     Largest allocated arrays     est. size (Mb)     dimensions
        Kohn-Sham Wavefunctions         3.59 Mb     (    4520,   52)
        NL pseudopotentials             9.93 Mb     (    4520,  144)
        Each V/rho on FFT grid          3.75 Mb     (  245760)
        Each G-vector array             0.77 Mb     (  100611)
        G-vector shells                 0.04 Mb     (    4911)
     Largest temporary arrays     est. size (Mb)     dimensions
        Auxiliary wavefunctions        14.35 Mb     (    4520,  208)
        Each subspace H/S matrix        0.66 Mb     (     208,  208)
        Each <psi_i|beta_j> matrix      0.11 Mb     (     144,   52)
        Arrays for rho mixing          30.00 Mb     (  245760,    8)

     Check: negative/imaginary core charge=   -0.000003    0.000000

     Initial potential from superposition of free atoms
     Check: negative starting charge=   -0.000180

     starting charge   85.91012, renormalised to   86.00000

     negative rho (up, down):  1.798E-04 0.000E+00
     Starting wfc are    8 randomized atomic wfcs +   44 random wfc
     Checking if some PAW data can be deallocated... 

     total cpu time spent up to now is       15.4 secs

     per-process dynamical memory:   267.0 Mb

     Self-consistent Calculation

     iteration #  1     ecut=    40.00 Ry     beta=0.70
     Davidson diagonalization with overlap
     ethr =  1.00E-02,  avg # of iterations =  7.1

     Threshold (ethr) on eigenvalues was too large:
     Diagonalizing with lowered threshold

     Davidson diagonalization with overlap
     ethr =  5.90E-04,  avg # of iterations =  1.0

     negative rho (up, down):  1.522E-04 0.000E+00

     total cpu time spent up to now is      189.9 secs

     total energy              =   -1158.46836488 Ry
     Harris-Foulkes estimate   =   -1158.88639318 Ry
     estimated scf accuracy    <       0.50775886 Ry

     iteration #  2     ecut=    40.00 Ry     beta=0.70
     Davidson diagonalization with overlap
     ethr =  5.90E-04,  avg # of iterations =  5.3

     negative rho (up, down):  3.801E-04 0.000E+00

     total cpu time spent up to now is      262.1 secs

     total energy              =   -1151.19522319 Ry
     Harris-Foulkes estimate   =   -1165.04534350 Ry
     estimated scf accuracy    <     410.64631868 Ry

     iteration #  3     ecut=    40.00 Ry     beta=0.70
     Davidson diagonalization with overlap
     ethr =  5.90E-04,  avg # of iterations =  4.8

     negative rho (up, down):  2.149E-04 0.000E+00

     total cpu time spent up to now is      325.8 secs

     total energy              =   -1158.49683649 Ry
     Harris-Foulkes estimate   =   -1159.10381699 Ry
     estimated scf accuracy    <       2.24179018 Ry

     iteration #  4     ecut=    40.00 Ry     beta=0.70
     Davidson diagonalization with overlap
     ethr =  5.90E-04,  avg # of iterations =  3.5

     negative rho (up, down):  1.303E-04 0.000E+00

     total cpu time spent up to now is      375.5 secs

     total energy              =   -1158.79418870 Ry
     Harris-Foulkes estimate   =   -1158.82201561 Ry
     estimated scf accuracy    <       0.25495803 Ry

     iteration #  5     ecut=    40.00 Ry     beta=0.70
     Davidson diagonalization with overlap
     ethr =  2.96E-04,  avg # of iterations =  3.3

     negative rho (up, down):  1.298E-04 0.000E+00

     total cpu time spent up to now is      419.8 secs

     total energy              =   -1158.78660039 Ry
     Harris-Foulkes estimate   =   -1158.83227169 Ry
     estimated scf accuracy    <       0.35875825 Ry

     iteration #  6     ecut=    40.00 Ry     beta=0.70
     Davidson diagonalization with overlap
     ethr =  2.96E-04,  avg # of iterations =  3.0

     negative rho (up, down):  1.342E-04 0.000E+00

     total cpu time spent up to now is      462.7 secs

     total energy              =   -1158.80501885 Ry
     Harris-Foulkes estimate   =   -1158.81215593 Ry
     estimated scf accuracy    <       0.04507564 Ry

     iteration #  7     ecut=    40.00 Ry     beta=0.70
     Davidson diagonalization with overlap
     ethr =  5.24E-05,  avg # of iterations =  2.5

     negative rho (up, down):  1.372E-04 0.000E+00

     total cpu time spent up to now is      504.7 secs

     total energy              =   -1158.80719442 Ry
     Harris-Foulkes estimate   =   -1158.80929355 Ry
     estimated scf accuracy    <       0.04903753 Ry

     iteration #  8     ecut=    40.00 Ry     beta=0.70
     Davidson diagonalization with overlap
     ethr =  5.24E-05,  avg # of iterations =  1.1

     negative rho (up, down):  1.403E-04 0.000E+00

     total cpu time spent up to now is      544.2 secs

     total energy              =   -1158.80740475 Ry
     Harris-Foulkes estimate   =   -1158.80823229 Ry
     estimated scf accuracy    <       0.01733051 Ry

     iteration #  9     ecut=    40.00 Ry     beta=0.70
     Davidson diagonalization with overlap
     ethr =  2.02E-05,  avg # of iterations =  1.1

     negative rho (up, down):  1.422E-04 0.000E+00

     total cpu time spent up to now is      584.0 secs

     total energy              =   -1158.80752207 Ry
     Harris-Foulkes estimate   =   -1158.80768999 Ry
     estimated scf accuracy    <       0.00399680 Ry

     iteration # 10     ecut=    40.00 Ry     beta=0.70
     Davidson diagonalization with overlap
     ethr =  4.65E-06,  avg # of iterations =  2.7

     negative rho (up, down):  1.435E-04 0.000E+00

     total cpu time spent up to now is      626.2 secs

     total energy              =   -1158.80746236 Ry
     Harris-Foulkes estimate   =   -1158.80755456 Ry
     estimated scf accuracy    <       0.00223061 Ry

     iteration # 11     ecut=    40.00 Ry     beta=0.70
     Davidson diagonalization with overlap
     ethr =  2.59E-06,  avg # of iterations =  1.4

     negative rho (up, down):  1.459E-04 0.000E+00

     total cpu time spent up to now is      666.2 secs

     total energy              =   -1158.80739364 Ry
     Harris-Foulkes estimate   =   -1158.80748505 Ry
     estimated scf accuracy    <       0.00074547 Ry

     iteration # 12     ecut=    40.00 Ry     beta=0.70
     Davidson diagonalization with overlap
     ethr =  8.67E-07,  avg # of iterations =  2.2

     negative rho (up, down):  1.460E-04 0.000E+00

     total cpu time spent up to now is      708.1 secs

     total energy              =   -1158.80743844 Ry
     Harris-Foulkes estimate   =   -1158.80744127 Ry
     estimated scf accuracy    <       0.00001948 Ry

     iteration # 13     ecut=    40.00 Ry     beta=0.70
     Davidson diagonalization with overlap
     ethr =  2.27E-08,  avg # of iterations =  2.0

     negative rho (up, down):  1.462E-04 0.000E+00

     total cpu time spent up to now is      749.7 secs

     End of self-consistent calculation

          k = 0.0625 0.1083-0.0673 (  4518 PWs)   bands (ev):

   -98.7666 -98.1057 -98.0501 -97.6454 -50.1129 -50.0024 -49.9884 -49.4569
   -49.3487 -49.3302 -49.3279 -49.2913 -49.2782 -48.9080 -48.8944 -48.8664
   -17.4147  -3.7285  -1.5365  -0.9961   0.0354   0.7467   0.8363   1.3412
     1.3892   2.3300   2.5014   2.6978   2.8067   2.9663   3.0527   3.1366
     3.3066   3.4148   3.6132   3.7557   3.9351   4.0258   4.4866   4.5894
     4.8704   5.1892   5.5230   5.8397   7.8646  10.7988  11.6171  11.7166
    12.7693  13.1588  14.7123  15.2748

          k = 0.0625 0.2526-0.0673 (  4466 PWs)   bands (ev):

   -98.7641 -98.1031 -98.0476 -97.6429 -50.1057 -50.0547 -50.0031 -49.4473
   -49.3981 -49.3493 -49.3397 -49.3264 -49.2923 -48.9587 -48.9089 -48.8615
   -17.2754  -3.1827  -0.9665  -0.3342   0.3716   0.7475   1.1838   1.2509
     1.5734   2.0137   2.1921   2.4593   2.6694   2.9863   3.2039   3.2394
     3.4161   3.5237   3.7279   4.0166   4.0343   4.3244   4.4969   4.7129
     4.9649   5.3212   5.5842   6.8086   8.8851  10.0397  11.3662  12.1377
    13.6741  14.1188  15.4446  16.2703

          k = 0.0625 0.3969-0.0673 (  4438 PWs)   bands (ev):

   -98.7611 -98.1001 -98.0447 -97.6400 -50.1158 -50.0973 -50.0204 -49.4606
   -49.4421 -49.3896 -49.3622 -49.3305 -49.3088 -49.0177 -48.9259 -48.8559
   -17.1048  -2.5456  -1.0525  -0.0864   0.5769   0.8492   0.9682   1.1762
     1.4810   1.6564   2.1437   2.6705   2.9238   3.0406   3.2067   3.5228
     3.7792   4.1486   4.4025   4.4612   4.7224   4.8938   5.1575   5.4147
     5.5682   5.7599   6.1519   7.6942   8.6833  10.5161  11.0325  13.2929
    14.1237  14.9484  15.3041  15.9094

          k = 0.0625 0.5413-0.0673 (  4394 PWs)   bands (ev):

   -98.7595 -98.0984 -98.0431 -97.6383 -50.1502 -50.0925 -50.0302 -49.4930
   -49.4593 -49.3970 -49.3728 -49.3330 -49.3181 -49.0507 -48.9355 -48.8527
   -17.0047  -2.1130  -1.4285  -0.2242   0.6110   0.7603   0.8260   1.0921
     1.2289   1.6177   2.1085   2.7249   2.9237   3.0355   3.3166   3.6893
     4.3220   4.5381   4.9094   5.0762   5.4138   5.4812   5.7243   5.8605
     5.9975   7.0773   7.7557   8.4086   9.5760  10.3241  10.8079  11.3764
    12.1487  13.0878  14.3296  16.2323

          k = 0.0625-0.4691-0.0673 (  4416 PWs)   bands (ev):

   -98.7601 -98.0990 -98.0437 -97.6389 -50.1382 -50.0942 -50.0267 -49.4814
   -49.4517 -49.3963 -49.3691 -49.3320 -49.3148 -49.0392 -48.9321 -48.8538
   -17.0401  -2.2855  -1.2635  -0.1789   0.6530   0.7891   0.8738   1.1368
     1.3065   1.6274   2.0997   2.7025   2.9293   3.0986   3.2496   3.6659
     4.0819   4.4031   4.7285   4.9207   5.1136   5.3356   5.4382   5.6966
     5.8139   6.4041   6.9657   7.7728   9.1994  10.8385  11.2302  11.8278
    12.8322  14.1832  15.2317  16.2419

          k = 0.0625-0.3248-0.0673 (  4460 PWs)   bands (ev):

   -98.7626 -98.1016 -98.0461 -97.6414 -50.1013 -50.0865 -50.0121 -49.4450
   -49.4274 -49.3714 -49.3528 -49.3288 -49.3009 -48.9895 -48.9177 -48.8585
   -17.1876  -2.8547  -0.9115  -0.0063   0.3044   0.8797   1.0768   1.2352
     1.6932   1.7573   2.2148   2.4586   2.7588   3.0066   3.1962   3.4159
     3.5798   3.7759   3.9421   4.0717   4.4192   4.5101   4.8454   5.0025
     5.2628   5.4954   5.7070   7.3057   8.8150  10.0896  11.1934  12.7393
    14.3868  14.8415  15.8729  16.2723

          k = 0.0625-0.1804-0.0673 (  4490 PWs)   bands (ev):

   -98.7655 -98.1046 -98.0490 -97.6443 -50.1098 -50.0251 -49.9947 -49.4524
   -49.3699 -49.3374 -49.3296 -49.3116 -49.2843 -48.9300 -48.9007 -48.8642
   -17.3549  -3.4894  -1.2316  -0.7265   0.3565   0.6456   1.1321   1.2745
     1.3342   2.2012   2.3101   2.6953   2.7934   2.8936   2.9953   3.2786
     3.3598   3.4157   3.5928   3.7876   4.0386   4.1165   4.4081   4.6002
     4.8108   5.2282   5.5381   6.3043   8.4618  10.4191  11.5188  11.7931
    13.1319  13.5484  15.0106  15.7014

          k = 0.0625-0.0361-0.0673 (  4520 PWs)   bands (ev):

   -98.7672 -98.1063 -98.0507 -97.6460 -50.1146 -49.9899 -49.9851 -49.4594
   -49.3382 -49.3268 -49.3260 -49.2796 -49.2749 -48.8959 -48.8912 -48.8675
   -17.4466  -3.8596  -1.7198  -1.1342  -0.1602   0.5743   0.8849   1.4038
     1.4233   2.4243   2.5573   2.6111   2.8951   3.0122   3.0270   3.1150
     3.1609   3.5035   3.6193   3.8905   3.9592   4.0042   4.5207   4.5482
     4.9967   5.1485   5.5307   5.6003   7.4038  10.9643  11.6994  11.7587
    12.5878  12.9599  14.5588  15.0455

          k = 0.1875 0.3248-0.0673 (  4450 PWs)   bands (ev):

   -98.7616 -98.1006 -98.0452 -97.6404 -50.0987 -50.0968 -50.0274 -49.4465
   -49.4330 -49.3855 -49.3625 -49.3293 -49.3157 -48.9996 -48.9327 -48.8567
   -17.1316  -2.6386  -0.8951   0.2459   0.4522   0.8078   1.1687   1.6187
     1.7164   1.9118   2.1480   2.2277   2.7010   2.8788   2.9888   3.2100
     3.2769   3.7014   3.9551   4.1197   4.5803   4.7953   4.9709   5.4259
     5.5599   5.8497   6.2945   7.7930   8.7772  10.4629  10.6444  13.3339
    14.9306  15.3936  15.9273  16.2405

          k = 0.1875 0.4691-0.0673 (  4428 PWs)   bands (ev):

   -98.7595 -98.0984 -98.0431 -97.6383 -50.1285 -50.0925 -50.0522 -49.4718
   -49.4442 -49.4017 -49.3862 -49.3396 -49.3302 -49.0300 -48.9568 -48.8526
   -17.0059  -2.1321  -1.0887   0.0204   0.3483   1.1126   1.2300   1.4371
     1.7109   1.9191   2.2223   2.4227   2.6604   2.9265   3.1379   3.4145
     3.7442   4.0821   4.1962   4.4116   4.7908   5.1403   5.3855   5.7601
     5.8774   7.5063   7.7936   8.4515   9.6896  10.2593  11.8401  12.3084
    13.1756  14.3133  15.1711  15.6909

          k = 0.1875 0.6134-0.0673 (  4432 PWs)   bands (ev):

   -98.7590 -98.0979 -98.0426 -97.6378 -50.1355 -50.0911 -50.0584 -49.4786
   -49.4477 -49.4036 -49.3918 -49.3441 -49.3314 -49.0368 -48.9628 -48.8517
   -16.9759  -1.9854  -1.1727  -0.0563   0.2883   1.0752   1.2373   1.4178
     1.6654   2.0444   2.1749   2.3396   2.6197   3.0586   3.2360   3.4727
     3.8055   4.2404   4.5086   4.5895   4.9856   5.1942   5.4457   5.7505
     5.8828   7.5487   8.7323   9.4077   9.8083  10.4313  11.2063  11.7585
    12.8795  13.3922  14.4171  15.7992

          k = 0.1875-0.3969-0.0673 (  4450 PWs)   bands (ev):

   -98.7604 -98.0994 -98.0440 -97.6392 -50.1152 -50.0951 -50.0411 -49.4595
   -49.4390 -49.3968 -49.3756 -49.3325 -49.3264 -49.0172 -48.9460 -48.8544
   -17.0609  -2.3644  -0.9820   0.1414   0.4576   0.9991   1.2300   1.5024
     1.7422   1.9249   2.1265   2.4667   2.6904   2.8209   2.9489   3.4001
     3.5438   3.7492   4.0158   4.2044   4.6536   5.0676   5.1891   5.6421
     5.7900   6.5964   7.2058   8.0742   9.0388  10.2295  11.1414  13.8130
    14.4057  14.9274  15.6770  15.8376

          k = 0.1875-0.2526-0.0673 (  4452 PWs)   bands (ev):

   -98.7629 -98.1019 -98.0465 -97.6417 -50.1023 -50.0759 -50.0139 -49.4443
   -49.4175 -49.3681 -49.3498 -49.3280 -49.3029 -48.9792 -48.9195 -48.8592
   -17.2069  -2.9229  -0.8762   0.0485   0.3276   0.8666   1.0889   1.4094
     1.7980   1.9196   2.0851   2.3260   2.5802   2.9483   3.1091   3.1968
     3.3006   3.6703   3.9090   4.0174   4.3992   4.4642   4.7729   4.9980
     5.2968   5.4350   5.7257   7.2574   8.9177  10.1065  11.0262  12.6365
    14.2174  14.6824  15.8629  16.7300

          k = 0.1875-0.1083-0.0673 (  4480 PWs)   bands (ev):

   -98.7650 -98.1041 -98.0485 -97.6438 -50.1084 -50.0364 -49.9968 -49.4505
   -49.3809 -49.3381 -49.3332 -49.3203 -49.2861 -48.9410 -48.9027 -48.8633
   -17.3271  -3.3815  -1.1206  -0.5990   0.4150   0.6098   1.1944   1.2826
     1.3593   2.1429   2.2612   2.6113   2.7530   3.0020   3.0600   3.3229
     3.3327   3.4855   3.6847   3.8191   3.9342   4.1950   4.4189   4.5672
     4.9982   5.0898   5.6196   6.4731   8.6504  10.2232  11.5515  11.8514
    13.3117  13.7389  15.1548  15.8949

          k = 0.3125 0.5413-0.0673 (  4434 PWs)   bands (ev):

   -98.7585 -98.0975 -98.0422 -97.6374 -50.1133 -50.0927 -50.0897 -49.4572
   -49.4384 -49.4339 -49.3901 -49.3677 -49.3315 -49.0156 -48.9958 -48.8508
   -16.9494  -1.8680  -0.7907  -0.4371   0.2162   1.4225   1.5204   1.7477
     1.9088   2.1497   2.2669   2.4037   2.4725   2.7861   3.1263   3.6719
     3.8134   3.8632   4.1443   4.4166   4.5814   5.2584   5.4123   5.5105
     5.9487   7.6633   8.7013   9.8862  10.9125  11.0308  11.2630  12.5792
    12.8516  13.6285  14.3151  15.1814

          k = 0.3125 0.6856-0.0673 (  4444 PWs)   bands (ev):

   -98.7588 -98.0978 -98.0425 -97.6377 -50.1241 -50.0907 -50.0731 -49.4674
   -49.4406 -49.4183 -49.3892 -49.3564 -49.3311 -49.0259 -48.9769 -48.8514
   -16.9694  -1.9627  -0.9863  -0.1216   0.1991   1.3252   1.3734   1.6718
     1.8434   2.0768   2.2507   2.3650   2.5318   2.9252   3.0147   3.5844
     3.6978   4.0010   4.1825   4.3536   4.6587   5.1976   5.4433   5.7014
     5.9030   7.7237   8.6345   9.0874   9.8876  11.1646  11.5991  12.3226
    13.2049  13.5034  14.6341  14.9998

          k = 0.3125-0.3248-0.0673 (  4428 PWs)   bands (ev):

   -98.7603 -98.0993 -98.0439 -97.6391 -50.1255 -50.0948 -50.0339 -49.4692
   -49.4444 -49.3948 -49.3745 -49.3310 -49.3214 -49.0270 -48.9390 -48.8542
   -17.0536  -2.3387  -1.1020  -0.0340   0.6296   0.8950   1.0125   1.2966
     1.5002   1.7932   2.1535   2.5612   2.8095   2.9625   3.2502   3.3887
     3.7962   4.0799   4.3271   4.5271   4.8367   5.0668   5.2247   5.6686
     5.7662   6.5216   7.0966   7.9209   9.0872  10.4947  11.1697  12.8583
    13.7721  14.6355  15.5551  16.0637

          k = 0.3125-0.1804-0.0673 (  4442 PWs)   bands (ev):

   -98.7619 -98.1010 -98.0455 -97.6408 -50.1018 -50.0994 -50.0133 -49.4498
   -49.4379 -49.3809 -49.3551 -49.3299 -49.3019 -49.0040 -48.9189 -48.8574
   -17.1518  -2.7244  -0.9767  -0.0763   0.3880   0.8438   1.0670   1.1504
     1.5666   1.6256   2.1863   2.6465   2.9293   3.1287   3.1329   3.5662
     3.7331   4.0847   4.1074   4.3078   4.5321   4.8075   4.8969   5.0582
     5.3076   5.6549   5.6711   7.4452   8.6822  10.2053  11.2481  12.9874
    14.7221  15.0297  15.1453  16.1069

          k = 0.4375 0.7578-0.0673 (  4420 PWs)   bands (ev):

   -98.7592 -98.0981 -98.0428 -97.6380 -50.1458 -50.0917 -50.0422 -49.4887
   -49.4555 -49.3959 -49.3851 -49.3323 -49.3292 -49.0466 -48.9471 -48.8522
   -16.9883  -2.0343  -1.3507  -0.1397   0.5343   0.8349   0.9574   1.2639
     1.3496   1.8345   2.1417   2.5229   2.7414   3.1234   3.2384   3.6955
     4.0349   4.3613   4.8308   5.0158   5.1915   5.2829   5.6044   5.7937
     5.8992   7.3615   8.5797   9.1437   9.7546  10.0140  10.6874  11.6195
    12.1631  13.6067  13.8325  16.4063

          k = 0.4375-0.2526-0.0673 (  4396 PWs)   bands (ev):

   -98.7598 -98.0987 -98.0434 -97.6386 -50.1473 -50.0934 -50.0250 -49.4903
   -49.4577 -49.3973 -49.3671 -49.3330 -49.3130 -49.0480 -48.9304 -48.8533
   -17.0229  -2.2057  -1.3898  -0.2438   0.5788   0.7078   0.9152   1.0441
     1.2152   1.5471   2.0887   2.7944   2.9736   3.0584   3.3374   3.6386
     4.4224   4.6040   4.8240   4.9596   5.4496   5.6232   5.6836   5.7709
     6.0899   6.4963   7.1618   7.7971   9.4123  10.8121  11.0031  11.4963
    12.1107  13.4577  14.9726  15.9418

          k = 0.1250 0.0000-0.0673 (  4518 PWs)   bands (ev):

   -98.7666 -98.1057 -98.0501 -97.6454 -50.1129 -50.0023 -49.9885 -49.4569
   -49.3487 -49.3302 -49.3279 -49.2913 -49.2782 -48.9079 -48.8945 -48.8664
   -17.4147  -3.7285  -1.5365  -0.9961   0.0354   0.7468   0.8363   1.3421
     1.3882   2.3300   2.5014   2.6977   2.8068   2.9663   3.0527   3.1366
     3.3066   3.4148   3.6132   3.7557   3.9352   4.0258   4.4866   4.5894
     4.8704   5.1892   5.5230   5.8398   7.8647  10.7976  11.6117  11.7223
    12.7694  13.1590  14.7124  15.2753

          k =-0.1875 0.1804-0.0673 (  4466 PWs)   bands (ev):

   -98.7641 -98.1031 -98.0476 -97.6429 -50.1057 -50.0546 -50.0031 -49.4473
   -49.3981 -49.3493 -49.3397 -49.3264 -49.2923 -48.9586 -48.9089 -48.8615
   -17.2754  -3.1827  -0.9665  -0.3341   0.3720   0.7473   1.1835   1.2508
     1.5733   2.0136   2.1922   2.4592   2.6695   2.9863   3.2039   3.2395
     3.4162   3.5238   3.7278   4.0166   4.0343   4.3245   4.4970   4.7129
     4.9650   5.3213   5.5843   6.8090   8.8845  10.0377  11.3674  12.1378
    13.6741  14.1190  15.4447  16.2705

          k = 0.2500 0.0722-0.0673 (  4466 PWs)   bands (ev):

   -98.7641 -98.1031 -98.0476 -97.6429 -50.1057 -50.0546 -50.0031 -49.4473
   -49.3981 -49.3493 -49.3397 -49.3264 -49.2923 -48.9586 -48.9089 -48.8615
   -17.2754  -3.1827  -0.9665  -0.3342   0.3719   0.7476   1.1840   1.2501
     1.5733   2.0136   2.1921   2.4592   2.6695   2.9864   3.2039   3.2394
     3.4161   3.5238   3.7281   4.0166   4.0343   4.3246   4.4970   4.7129
     4.9649   5.3215   5.5842   6.8092   8.8843  10.0380  11.3637  12.1404
    13.6742  14.1195  15.4448  16.2714

          k =-0.3125 0.2526-0.0673 (  4438 PWs)   bands (ev):

   -98.7611 -98.1001 -98.0447 -97.6400 -50.1158 -50.0973 -50.0204 -49.4606
   -49.4421 -49.3896 -49.3621 -49.3305 -49.3088 -49.0177 -48.9259 -48.8559
   -17.1048  -2.5455  -1.0527  -0.0857   0.5767   0.8488   0.9683   1.1758
     1.4810   1.6563   2.1437   2.6703   2.9238   3.0407   3.2066   3.5229
     3.7793   4.1489   4.4025   4.4613   4.7224   4.8939   5.1576   5.4147
     5.5683   5.7600   6.1527   7.6954   8.6794  10.5167  11.0323  13.2931
    14.1237  14.9483  15.3039  15.9095

          k = 0.3750 0.1443-0.0673 (  4438 PWs)   bands (ev):

   -98.7611 -98.1001 -98.0447 -97.6400 -50.1158 -50.0973 -50.0205 -49.4606
   -49.4421 -49.3896 -49.3621 -49.3305 -49.3088 -49.0177 -48.9259 -48.8559
   -17.1048  -2.5455  -1.0526  -0.0857   0.5768   0.8493   0.9675   1.1759
     1.4810   1.6564   2.1438   2.6705   2.9239   3.0405   3.2068   3.5228
     3.7791   4.1489   4.4026   4.4613   4.7224   4.8938   5.1575   5.4147
     5.5684   5.7600   6.1528   7.6953   8.6796  10.5157  11.0326  13.2935
    14.1237  14.9480  15.3039  15.9102

          k =-0.4375 0.3248-0.0673 (  4394 PWs)   bands (ev):

   -98.7595 -98.0984 -98.0431 -97.6383 -50.1502 -50.0925 -50.0302 -49.4931
   -49.4593 -49.3970 -49.3728 -49.3330 -49.3181 -49.0507 -48.9355 -48.8527
   -17.0047  -2.1129  -1.4286  -0.2237   0.6108   0.7600   0.8260   1.0920
     1.2287   1.6175   2.1088   2.7250   2.9237   3.0354   3.3167   3.6893
     4.3219   4.5381   4.9098   5.0763   5.4138   5.4812   5.7243   5.8605
     5.9975   7.0794   7.7553   8.4080   9.5757  10.3208  10.8080  11.3761
    12.1485  13.0891  14.3297  16.2324

          k = 0.5000 0.2165-0.0673 (  4394 PWs)   bands (ev):

   -98.7595 -98.0984 -98.0431 -97.6383 -50.1502 -50.0925 -50.0302 -49.4931
   -49.4593 -49.3970 -49.3728 -49.3330 -49.3181 -49.0507 -48.9355 -48.8527
   -17.0047  -2.1129  -1.4286  -0.2237   0.6110   0.7600   0.8259   1.0920
     1.2286   1.6175   2.1088   2.7252   2.9235   3.0356   3.3166   3.6893
     4.3219   4.5380   4.9098   5.0762   5.4137   5.4812   5.7243   5.8604
     5.9975   7.0794   7.7553   8.4081   9.5757  10.3211  10.8075  11.3760
    12.1487  13.0893  14.3293  16.2325

          k = 0.4375-0.1804-0.0673 (  4416 PWs)   bands (ev):

   -98.7601 -98.0990 -98.0437 -97.6389 -50.1381 -50.0942 -50.0268 -49.4814
   -49.4517 -49.3963 -49.3691 -49.3320 -49.3148 -49.0392 -48.9321 -48.8538
   -17.0401  -2.2854  -1.2636  -0.1783   0.6531   0.7888   0.8734   1.1365
     1.3063   1.6273   2.0999   2.7026   2.9290   3.0987   3.2497   3.6657
     4.0818   4.4033   4.7288   4.9206   5.1135   5.3356   5.4382   5.6966
     5.8141   6.4048   6.9672   7.7714   9.1973  10.8377  11.2308  11.8269
    12.8325  14.1838  15.2311  16.2416

          k =-0.3750-0.2887-0.0673 (  4416 PWs)   bands (ev):

   -98.7601 -98.0990 -98.0437 -97.6389 -50.1381 -50.0942 -50.0268 -49.4814
   -49.4517 -49.3963 -49.3691 -49.3320 -49.3148 -49.0392 -48.9321 -48.8538
   -17.0401  -2.2854  -1.2636  -0.1783   0.6528   0.7888   0.8739   1.1365
     1.3064   1.6273   2.0999   2.7024   2.9293   3.0985   3.2497   3.6659
     4.0816   4.4035   4.7287   4.9207   5.1136   5.3357   5.4382   5.6967
     5.8140   6.4048   6.9671   7.7715   9.1969  10.8395  11.2291  11.8270
    12.8326  14.1838  15.2314  16.2418

          k = 0.3125-0.1083-0.0673 (  4460 PWs)   bands (ev):

   -98.7626 -98.1016 -98.0461 -97.6414 -50.1013 -50.0864 -50.0121 -49.4450
   -49.4274 -49.3714 -49.3528 -49.3288 -49.3009 -48.9894 -48.9177 -48.8585
   -17.1877  -2.8547  -0.9115  -0.0058   0.3044   0.8797   1.0764   1.2349
     1.6931   1.7572   2.2148   2.4586   2.7589   3.0068   3.1961   3.4160
     3.5799   3.7759   3.9421   4.0719   4.4193   4.5102   4.8453   5.0025
     5.2628   5.4957   5.7073   7.3068   8.8119  10.0892  11.1924  12.7408
    14.3869  14.8422  15.8730  16.2719

          k =-0.2500-0.2165-0.0673 (  4460 PWs)   bands (ev):

   -98.7626 -98.1016 -98.0461 -97.6414 -50.1013 -50.0865 -50.0121 -49.4450
   -49.4274 -49.3714 -49.3528 -49.3288 -49.3009 -48.9894 -48.9177 -48.8585
   -17.1877  -2.8547  -0.9116  -0.0057   0.3042   0.8793   1.0769   1.2349
     1.6931   1.7573   2.2148   2.4586   2.7588   3.0066   3.1962   3.4159
     3.5802   3.7759   3.9421   4.0717   4.4192   4.5102   4.8454   5.0025
     5.2628   5.4955   5.7073   7.3066   8.8122  10.0890  11.1941  12.7396
    14.3869  14.8417  15.8728  16.2724

          k = 0.1875-0.0361-0.0673 (  4490 PWs)   bands (ev):

   -98.7655 -98.1046 -98.0490 -97.6443 -50.1098 -50.0251 -49.9948 -49.4524
   -49.3699 -49.3374 -49.3296 -49.3116 -49.2843 -48.9300 -48.9007 -48.8642
   -17.3549  -3.4894  -1.2316  -0.7265   0.3565   0.6459   1.1322   1.2755
     1.3328   2.2011   2.3100   2.6953   2.7935   2.8935   2.9954   3.2786
     3.3598   3.4158   3.5929   3.7877   4.0386   4.1165   4.4081   4.6003
     4.8108   5.2283   5.5381   6.3046   8.4617  10.4172  11.5138  11.7985
    13.1321  13.5489  15.0107  15.7024

          k =-0.1250-0.1443-0.0673 (  4490 PWs)   bands (ev):

   -98.7655 -98.1046 -98.0490 -97.6443 -50.1098 -50.0251 -49.9948 -49.4524
   -49.3699 -49.3374 -49.3296 -49.3116 -49.2843 -48.9300 -48.9007 -48.8642
   -17.3549  -3.4894  -1.2316  -0.7265   0.3565   0.6457   1.1321   1.2741
     1.3344   2.2012   2.3100   2.6952   2.7936   2.8936   2.9953   3.2786
     3.3598   3.4158   3.5928   3.7876   4.0386   4.1165   4.4081   4.6002
     4.8109   5.2282   5.5381   6.3044   8.4618  10.4175  11.5205  11.7925
    13.1320  13.5485  15.0106  15.7016

          k = 0.0000-0.0722-0.0673 (  4520 PWs)   bands (ev):

   -98.7672 -98.1063 -98.0507 -97.6460 -50.1146 -49.9900 -49.9850 -49.4594
   -49.3382 -49.3268 -49.3260 -49.2796 -49.2749 -48.8959 -48.8911 -48.8675
   -17.4466  -3.8596  -1.7198  -1.1342  -0.1602   0.5743   0.8848   1.4038
     1.4233   2.4242   2.5574   2.6112   2.8951   3.0122   3.0270   3.1150
     3.1609   3.5035   3.6193   3.8904   3.9592   4.0043   4.5207   4.5483
     4.9967   5.1484   5.5307   5.6003   7.4038  10.9651  11.6989  11.7586
    12.5877  12.9598  14.5588  15.0454

          k = 0.3750 0.0000-0.0673 (  4450 PWs)   bands (ev):

   -98.7616 -98.1006 -98.0452 -97.6404 -50.0987 -50.0968 -50.0275 -49.4465
   -49.4330 -49.3855 -49.3625 -49.3293 -49.3157 -48.9996 -48.9327 -48.8567
   -17.1316  -2.6386  -0.8950   0.2462   0.4519   0.8077   1.1686   1.6186
     1.7164   1.9117   2.1481   2.2276   2.7010   2.8788   2.9889   3.2101
     3.2770   3.7014   3.9550   4.1196   4.5806   4.7951   4.9710   5.4261
     5.5599   5.8498   6.2949   7.7935   8.7759  10.4607  10.6450  13.3350
    14.9306  15.3947  15.9274  16.2390

          k =-0.3125 0.3969-0.0673 (  4428 PWs)   bands (ev):

   -98.7595 -98.0984 -98.0431 -97.6383 -50.1285 -50.0925 -50.0523 -49.4718
   -49.4442 -49.4017 -49.3862 -49.3396 -49.3302 -49.0300 -48.9568 -48.8526
   -17.0059  -2.1321  -1.0886   0.0203   0.3485   1.1125   1.2300   1.4371
     1.7109   1.9189   2.2223   2.4227   2.6602   2.9265   3.1379   3.4145
     3.7445   4.0821   4.1962   4.4117   4.7908   5.1406   5.3853   5.7600
     5.8775   7.5074   7.7934   8.4500   9.6897  10.2592  11.8403  12.3073
    13.1756  14.3133  15.1720  15.6904

          k = 0.5000 0.0722-0.0673 (  4428 PWs)   bands (ev):

   -98.7595 -98.0984 -98.0431 -97.6383 -50.1284 -50.0925 -50.0523 -49.4718
   -49.4442 -49.4017 -49.3862 -49.3396 -49.3302 -49.0300 -48.9568 -48.8526
   -17.0059  -2.1320  -1.0886   0.0207   0.3478   1.1125   1.2301   1.4371
     1.7109   1.9190   2.2223   2.4228   2.6602   2.9265   3.1380   3.4146
     3.7443   4.0824   4.1962   4.4117   4.7908   5.1406   5.3850   5.7604
     5.8774   7.5073   7.7928   8.4508   9.6904  10.2578  11.8408  12.3075
    13.1754  14.3124  15.1719  15.6901

          k =-0.4375 0.4691-0.0673 (  4432 PWs)   bands (ev):

   -98.7590 -98.0979 -98.0426 -97.6378 -50.1354 -50.0911 -50.0585 -49.4786
   -49.4477 -49.4036 -49.3918 -49.3441 -49.3314 -49.0367 -48.9628 -48.8517
   -16.9759  -1.9854  -1.1724  -0.0563   0.2882   1.0750   1.2373   1.4178
     1.6653   2.0445   2.1750   2.3397   2.6193   3.0585   3.2361   3.4726
     3.8056   4.2408   4.5086   4.5896   4.9856   5.1941   5.4456   5.7506
     5.8828   7.5485   8.7323   9.4085   9.8081  10.4311  11.2047  11.7584
    12.8785  13.3929  14.4171  15.7990

          k = 0.6250 0.1443-0.0673 (  4432 PWs)   bands (ev):

   -98.7590 -98.0979 -98.0426 -97.6378 -50.1354 -50.0911 -50.0585 -49.4786
   -49.4477 -49.4036 -49.3918 -49.3441 -49.3314 -49.0367 -48.9628 -48.8517
   -16.9759  -1.9854  -1.1725  -0.0565   0.2884   1.0751   1.2373   1.4178
     1.6653   2.0443   2.1751   2.3396   2.6193   3.0586   3.2361   3.4726
     3.8057   4.2407   4.5086   4.5896   4.9856   5.1942   5.4456   5.7504
     5.8829   7.5489   8.7320   9.4077   9.8086  10.4312  11.2049  11.7582
    12.8791  13.3919  14.4181  15.7991

          k = 0.4375-0.0361-0.0673 (  4450 PWs)   bands (ev):

   -98.7604 -98.0994 -98.0440 -97.6392 -50.1152 -50.0951 -50.0412 -49.4595
   -49.4390 -49.3968 -49.3756 -49.3325 -49.3264 -49.0172 -48.9460 -48.8544
   -17.0609  -2.3643  -0.9819   0.1420   0.4567   0.9993   1.2299   1.5022
     1.7422   1.9248   2.1265   2.4667   2.6905   2.8209   2.9490   3.4005
     3.5439   3.7493   4.0156   4.2044   4.6537   5.0679   5.1887   5.6424
     5.7900   6.5966   7.2067   8.0730   9.0387  10.2273  11.1427  13.8130
    14.4060  14.9266  15.6761  15.8377

          k =-0.2500-0.3608-0.0673 (  4450 PWs)   bands (ev):

   -98.7604 -98.0994 -98.0440 -97.6392 -50.1152 -50.0951 -50.0411 -49.4595
   -49.4390 -49.3968 -49.3756 -49.3325 -49.3264 -49.0172 -48.9460 -48.8544
   -17.0609  -2.3644  -0.9819   0.1416   0.4576   0.9990   1.2300   1.5023
     1.7422   1.9247   2.1265   2.4667   2.6904   2.8209   2.9489   3.4004
     3.5439   3.7492   4.0155   4.2046   4.6536   5.0679   5.1890   5.6422
     5.7900   6.5965   7.2062   8.0739   9.0377  10.2302  11.1411  13.8129
    14.4057  14.9274  15.6771  15.8377

          k = 0.3125 0.0361-0.0673 (  4452 PWs)   bands (ev):

   -98.7629 -98.1019 -98.0465 -97.6417 -50.1023 -50.0758 -50.0140 -49.4443
   -49.4175 -49.3681 -49.3498 -49.3280 -49.3029 -48.9792 -48.9195 -48.8592
   -17.2069  -2.9229  -0.8761   0.0483   0.3279   0.8671   1.0883   1.4094
     1.7979   1.9195   2.0851   2.3260   2.5802   2.9485   3.1093   3.1966
     3.3006   3.6704   3.9090   4.0173   4.3993   4.4645   4.7728   4.9980
     5.2968   5.4351   5.7259   7.2578   8.9169  10.1071  11.0231  12.6384
    14.2175  14.6832  15.8631  16.7307

          k =-0.1250-0.2887-0.0673 (  4452 PWs)   bands (ev):

   -98.7629 -98.1019 -98.0465 -97.6417 -50.1023 -50.0759 -50.0139 -49.4443
   -49.4175 -49.3681 -49.3498 -49.3280 -49.3029 -48.9792 -48.9194 -48.8592
   -17.2069  -2.9229  -0.8762   0.0483   0.3276   0.8668   1.0889   1.4095
     1.7980   1.9196   2.0851   2.3260   2.5801   2.9484   3.1091   3.1967
     3.3005   3.6703   3.9091   4.0174   4.3993   4.4641   4.7728   4.9980
     5.2968   5.4351   5.7255   7.2570   8.9187  10.1070  11.0256  12.6364
    14.2174  14.6824  15.8628  16.7301

          k = 0.0000-0.2165-0.0673 (  4480 PWs)   bands (ev):

   -98.7650 -98.1041 -98.0485 -97.6438 -50.1084 -50.0365 -49.9967 -49.4505
   -49.3809 -49.3381 -49.3332 -49.3203 -49.2861 -48.9410 -48.9027 -48.8633
   -17.3271  -3.3815  -1.1206  -0.5990   0.4149   0.6097   1.1947   1.2827
     1.3596   2.1429   2.2612   2.6113   2.7528   3.0019   3.0600   3.3230
     3.3327   3.4854   3.6847   3.8191   3.9340   4.1950   4.4188   4.5672
     4.9982   5.0895   5.6196   6.4727   8.6506  10.2261  11.5516  11.8498
    13.3117  13.7386  15.1546  15.8943

          k = 0.6250 0.0000-0.0673 (  4434 PWs)   bands (ev):

   -98.7585 -98.0975 -98.0422 -97.6374 -50.1133 -50.0928 -50.0897 -49.4572
   -49.4384 -49.4339 -49.3901 -49.3677 -49.3315 -49.0156 -48.9958 -48.8508
   -16.9494  -1.8680  -0.7906  -0.4371   0.2160   1.4226   1.5206   1.7476
     1.9088   2.1497   2.2669   2.4037   2.4723   2.7862   3.1263   3.6719
     3.8136   3.8632   4.1442   4.4168   4.5813   5.2582   5.4123   5.5106
     5.9488   7.6625   8.7023   9.8861  10.9124  11.0306  11.2636  12.5780
    12.8516  13.6291  14.3135  15.1820

          k =-0.4375 0.6134-0.0673 (  4444 PWs)   bands (ev):

   -98.7588 -98.0978 -98.0425 -97.6377 -50.1240 -50.0907 -50.0731 -49.4674
   -49.4406 -49.4183 -49.3892 -49.3564 -49.3311 -49.0259 -48.9769 -48.8514
   -16.9694  -1.9627  -0.9862  -0.1211   0.1983   1.3252   1.3736   1.6717
     1.8435   2.0767   2.2507   2.3650   2.5317   2.9252   3.0148   3.5844
     3.6978   4.0010   4.1826   4.3536   4.6587   5.1974   5.4431   5.7017
     5.9030   7.7224   8.6355   9.0882   9.8869  11.1647  11.5995  12.3222
    13.2046  13.5030  14.6328  15.0005

          k = 0.7500 0.0722-0.0673 (  4444 PWs)   bands (ev):

   -98.7588 -98.0978 -98.0425 -97.6377 -50.1241 -50.0907 -50.0730 -49.4674
   -49.4406 -49.4183 -49.3892 -49.3564 -49.3311 -49.0259 -48.9769 -48.8514
   -16.9694  -1.9627  -0.9864  -0.1214   0.1990   1.3252   1.3733   1.6717
     1.8435   2.0768   2.2507   2.3650   2.5320   2.9251   3.0148   3.5843
     3.6975   4.0010   4.1827   4.3533   4.6587   5.1975   5.4433   5.7014
     5.9030   7.7237   8.6348   9.0871   9.8876  11.1645  11.5997  12.3227
    13.2050  13.5038  14.6337  14.9993

          k = 0.4375 0.1083-0.0673 (  4428 PWs)   bands (ev):

   -98.7603 -98.0993 -98.0439 -97.6391 -50.1254 -50.0948 -50.0339 -49.4692
   -49.4444 -49.3947 -49.3745 -49.3310 -49.3214 -49.0270 -48.9390 -48.8542
   -17.0536  -2.3386  -1.1020  -0.0341   0.6296   0.8947   1.0124   1.2967
     1.5001   1.7934   2.1535   2.5614   2.8096   2.9624   3.2504   3.3887
     3.7960   4.0801   4.3271   4.5271   4.8368   5.0666   5.2247   5.6688
     5.7662   6.5216   7.0968   7.9205   9.0880  10.4920  11.1717  12.8581
    13.7722  14.6354  15.5545  16.0639

          k =-0.1250-0.4330-0.0673 (  4428 PWs)   bands (ev):

   -98.7603 -98.0993 -98.0439 -97.6391 -50.1255 -50.0948 -50.0338 -49.4692
   -49.4444 -49.3948 -49.3745 -49.3310 -49.3214 -49.0270 -48.9390 -48.8542
   -17.0535  -2.3387  -1.1020  -0.0344   0.6297   0.8950   1.0126   1.2967
     1.5003   1.7934   2.1534   2.5614   2.8096   2.9624   3.2503   3.3886
     3.7960   4.0798   4.3271   4.5270   4.8366   5.0666   5.2248   5.6685
     5.7662   6.5213   7.0955   7.9218   9.0895  10.4932  11.1707  12.8588
    13.7716  14.6358  15.5547  16.0638

          k = 0.0000-0.3608-0.0673 (  4442 PWs)   bands (ev):

   -98.7619 -98.1010 -98.0455 -97.6408 -50.1018 -50.0994 -50.0132 -49.4498
   -49.4379 -49.3809 -49.3551 -49.3299 -49.3019 -49.0040 -48.9189 -48.8574
   -17.1518  -2.7244  -0.9766  -0.0771   0.3882   0.8441   1.0671   1.1508
     1.5667   1.6257   2.1863   2.6466   2.9292   3.1287   3.1329   3.5661
     3.7331   4.0847   4.1070   4.3077   4.5321   4.8074   4.8969   5.0582
     5.3075   5.6549   5.6702   7.4438   8.6861  10.2055  11.2482  12.9866
    14.7220  15.0302  15.1447  16.1073

          k = 0.8750 0.0000-0.0673 (  4420 PWs)   bands (ev):

   -98.7592 -98.0981 -98.0428 -97.6380 -50.1459 -50.0917 -50.0422 -49.4887
   -49.4555 -49.3959 -49.3851 -49.3323 -49.3292 -49.0466 -48.9471 -48.8522
   -16.9883  -2.0343  -1.3509  -0.1399   0.5342   0.8353   0.9574   1.2637
     1.3500   1.8346   2.1413   2.5227   2.7417   3.1234   3.2384   3.6957
     4.0349   4.3609   4.8307   5.0154   5.1917   5.2829   5.6044   5.7937
     5.8994   7.3605   8.5797   9.1437   9.7547  10.0148  10.6892  11.6205
    12.1628  13.6051  13.8334  16.4060

          k = 0.0000-0.5052-0.0673 (  4396 PWs)   bands (ev):

   -98.7598 -98.0987 -98.0434 -97.6386 -50.1474 -50.0934 -50.0249 -49.4903
   -49.4577 -49.3973 -49.3672 -49.3330 -49.3130 -49.0480 -48.9304 -48.8533
   -17.0229  -2.2058  -1.3897  -0.2445   0.5789   0.7082   0.9152   1.0443
     1.2154   1.5472   2.0884   2.7944   2.9736   3.0584   3.3373   3.6387
     4.4229   4.6040   4.8233   4.9596   5.4496   5.6232   5.6837   5.7709
     6.0899   6.4947   7.1606   7.7985   9.4142  10.8137  11.0031  11.4971
    12.1099  13.4568  14.9728  15.9416

     the Fermi energy is     7.5988 ev

!    total energy              =   -1158.80743984 Ry
     Harris-Foulkes estimate   =   -1158.80744012 Ry
     estimated scf accuracy    <       0.00000035 Ry

     The total energy is the sum of the following terms:

     one-electron contribution =   -6246.15607433 Ry
     hartree contribution      =    3128.13250435 Ry
     xc contribution           =    -113.43171003 Ry
     ewald contribution        =    2088.36053090 Ry
     one-center paw contrib.   =     -15.71130924 Ry
     smearing contrib. (-TS)   =      -0.00138149 Ry

     convergence has been achieved in  13 iterations

     Forces acting on atoms (Ry/au):


     negative rho (up, down):  1.462E-04 0.000E+00
     atom    1 type  1   force =     0.00000000    0.00000081   -0.01982287
     atom    2 type  1   force =     0.00000000    0.00000083    0.00312697
     atom    3 type  1   force =     0.00000000    0.00000387   -0.00300428
     atom    4 type  1   force =     0.00000000    0.00003448    0.01754441
     atom    5 type  2   force =     0.00000000   -0.00016729   -0.13586010
     atom    6 type  3   force =     0.00000000    0.00012732    0.13801586

     Total force =     0.195515     Total SCF correction =     0.004963

     BFGS Geometry Optimization

     number of scf cycles    =   1
     number of bfgs steps    =   0

     energy   new            =   -1158.8074398393 Ry

     new trust radius        =       0.1380159235 bohr
     new conv_thr            =       0.0000010000 Ry


ATOMIC_POSITIONS (alat)
Au      -0.000000000   0.000000149  -0.003637891
Au       0.500000000   0.288675152   0.817070861
Au       0.000000000   0.577350710   1.632441655
Au      -0.000000000   0.000006327   2.452709749
C        0.500000000   0.288644298   3.048800966
O        0.500001000   0.289698365   3.490171659



     Writing output data file CO_Au_hollow.save
     Check: negative starting charge=   -0.000180
     NEW-OLD atomic charge density approx. for the potential

     Check: negative/imaginary core charge=   -0.000003    0.000000
     Check: negative starting charge=   -0.000178

     negative rho (up, down):  9.949E-05 0.000E+00

     total cpu time spent up to now is      760.6 secs

     per-process dynamical memory:   342.8 Mb

     Self-consistent Calculation

     iteration #  1     ecut=    40.00 Ry     beta=0.70
     Davidson diagonalization with overlap
     ethr =  1.00E-06,  avg # of iterations =  5.0

     negative rho (up, down):  1.129E-04 0.000E+00

     total cpu time spent up to now is      855.4 secs

     total energy              =   -1158.63422708 Ry
     Harris-Foulkes estimate   =   -1158.75998417 Ry
     estimated scf accuracy    <       0.18164996 Ry

     iteration #  2     ecut=    40.00 Ry     beta=0.70
     Davidson diagonalization with overlap
     ethr =  2.11E-04,  avg # of iterations =  5.3

     negative rho (up, down):  4.684E-04 0.000E+00

     total cpu time spent up to now is      920.5 secs

     total energy              =   -1155.95792307 Ry
     Harris-Foulkes estimate   =   -1160.89566254 Ry
     estimated scf accuracy    <      92.52936392 Ry

     iteration #  3     ecut=    40.00 Ry     beta=0.70
     Davidson diagonalization with overlap
     ethr =  2.11E-04,  avg # of iterations =  5.1

     negative rho (up, down):  1.624E-04 0.000E+00

     total cpu time spent up to now is      992.1 secs

     total energy              =   -1158.69530710 Ry
     Harris-Foulkes estimate   =   -1158.82893475 Ry
     estimated scf accuracy    <       1.41033529 Ry

     iteration #  4     ecut=    40.00 Ry     beta=0.70
     Davidson diagonalization with overlap
     ethr =  2.11E-04,  avg # of iterations =  3.7

     negative rho (up, down):  1.095E-04 0.000E+00

     total cpu time spent up to now is     1040.3 secs

     total energy              =   -1158.76681400 Ry
     Harris-Foulkes estimate   =   -1158.78628076 Ry
     estimated scf accuracy    <       0.15509385 Ry

     iteration #  5     ecut=    40.00 Ry     beta=0.70
     Davidson diagonalization with overlap
     ethr =  1.80E-04,  avg # of iterations =  2.9

     negative rho (up, down):  1.174E-04 0.000E+00

     total cpu time spent up to now is     1084.8 secs

     total energy              =   -1158.77075672 Ry
     Harris-Foulkes estimate   =   -1158.78308993 Ry
     estimated scf accuracy    <       0.06671965 Ry

     iteration #  6     ecut=    40.00 Ry     beta=0.70
     Davidson diagonalization with overlap
     ethr =  7.76E-05,  avg # of iterations =  2.0

     negative rho (up, down):  1.182E-04 0.000E+00

     total cpu time spent up to now is     1126.6 secs

     total energy              =   -1158.77630543 Ry
     Harris-Foulkes estimate   =   -1158.77727541 Ry
     estimated scf accuracy    <       0.00538785 Ry

     iteration #  7     ecut=    40.00 Ry     beta=0.70
     Davidson diagonalization with overlap
     ethr =  6.26E-06,  avg # of iterations =  2.5

     negative rho (up, down):  1.177E-04 0.000E+00

     total cpu time spent up to now is     1172.0 secs

     total energy              =   -1158.77674341 Ry
     Harris-Foulkes estimate   =   -1158.77697801 Ry
     estimated scf accuracy    <       0.00114901 Ry

     iteration #  8     ecut=    40.00 Ry     beta=0.70
     Davidson diagonalization with overlap
     ethr =  1.34E-06,  avg # of iterations =  1.8

     negative rho (up, down):  1.174E-04 0.000E+00

     total cpu time spent up to now is     1214.2 secs

     total energy              =   -1158.77682136 Ry
     Harris-Foulkes estimate   =   -1158.77686248 Ry
     estimated scf accuracy    <       0.00009140 Ry

     iteration #  9     ecut=    40.00 Ry     beta=0.70
     Davidson diagonalization with overlap
     ethr =  1.06E-07,  avg # of iterations =  2.0

     negative rho (up, down):  1.175E-04 0.000E+00

     total cpu time spent up to now is     1263.1 secs

     total energy              =   -1158.77683197 Ry
     Harris-Foulkes estimate   =   -1158.77685710 Ry
     estimated scf accuracy    <       0.00007241 Ry

     iteration # 10     ecut=    40.00 Ry     beta=0.70
     Davidson diagonalization with overlap
     ethr =  8.42E-08,  avg # of iterations =  2.0

     negative rho (up, down):  1.173E-04 0.000E+00

     total cpu time spent up to now is     1309.8 secs

     total energy              =   -1158.77684444 Ry
     Harris-Foulkes estimate   =   -1158.77684753 Ry
     estimated scf accuracy    <       0.00001296 Ry

     iteration # 11     ecut=    40.00 Ry     beta=0.70
     Davidson diagonalization with overlap
     ethr =  1.51E-08,  avg # of iterations =  2.0

     negative rho (up, down):  1.173E-04 0.000E+00

     total cpu time spent up to now is     1353.9 secs

     End of self-consistent calculation

          k = 0.0625 0.1083-0.0673 (  4518 PWs)   bands (ev):

   -99.2564 -98.5595 -98.4876 -98.0528 -50.6035 -50.4857 -50.4718 -49.9036
   -49.7995 -49.7833 -49.7675 -49.7300 -49.7169 -49.3147 -49.3012 -49.2726
   -14.7492  -4.2050  -1.8268  -0.8021  -0.2778   0.3721   1.2023   1.6181
     2.0426   2.0568   2.3354   2.5202   2.5941   2.6475   2.8670   2.9961
     3.1252   3.1644   3.2800   3.3929   3.7419   3.7779   4.0800   4.1962
     4.4537   4.7794   5.0971   5.4341   7.4892  10.2944  10.8722  11.2038
    12.8913  13.4733  14.9167  15.2784

          k = 0.0625 0.2526-0.0673 (  4466 PWs)   bands (ev):

   -99.2539 -98.5570 -98.4851 -98.0503 -50.5964 -50.5379 -50.4864 -49.8944
   -49.8510 -49.7994 -49.7814 -49.7634 -49.7311 -49.3655 -49.3156 -49.2676
   -14.5802  -3.6016  -0.9096  -0.1683   0.4087   0.8691   1.1280   1.3550
     1.6259   1.9532   2.1196   2.3503   2.4422   2.7077   2.8051   2.9398
     3.1606   3.2350   3.5478   3.5841   3.6998   3.9842   4.0913   4.2988
     4.5484   4.9381   5.1575   6.4528   8.5658   9.4356  10.5938  11.7993
    13.8072  14.3982  15.6258  16.2642

          k = 0.0625 0.3969-0.0673 (  4438 PWs)   bands (ev):

   -99.2509 -98.5540 -98.4822 -98.0473 -50.5990 -50.5880 -50.5037 -49.9135
   -49.8884 -49.8307 -49.8152 -49.7658 -49.7477 -49.4247 -49.3326 -49.2618
   -14.3711  -2.8818  -0.2624   0.1802   0.3495   0.5858   1.0419   1.1623
     1.4678   1.7738   2.0994   2.3384   2.5610   2.7404   3.0343   3.2008
     3.5110   3.8083   4.0035   4.0782   4.2923   4.4726   4.7244   4.9805
     5.1447   5.3429   5.7879   7.3521   8.2487  10.1158  10.2951  12.9330
    13.7135  14.6090  15.4918  16.0317

          k = 0.0625 0.5413-0.0673 (  4394 PWs)   bands (ev):

   -99.2493 -98.5523 -98.4805 -98.0457 -50.6334 -50.5833 -50.5135 -49.9464
   -49.9018 -49.8419 -49.8261 -49.7673 -49.7571 -49.4579 -49.3423 -49.2586
   -14.2475  -2.4411  -0.4991   0.1077   0.2624   0.4667   0.7800   1.0146
     1.3015   1.7669   1.9748   2.4508   2.5900   2.9063   3.0371   3.4702
     3.9402   4.1385   4.5021   4.6749   4.9797   5.0413   5.2913   5.4814
     5.5847   6.6147   7.3013   7.9938   9.1630   9.8976  10.1985  10.9908
    11.7850  12.6910  13.9429  15.8454

          k = 0.0625-0.4691-0.0673 (  4416 PWs)   bands (ev):

   -99.2499 -98.5529 -98.4811 -98.0462 -50.6213 -50.5849 -50.5101 -49.9347
   -49.8954 -49.8398 -49.8223 -49.7667 -49.7538 -49.4463 -49.3389 -49.2597
   -14.2914  -2.6022  -0.3757   0.1472   0.2943   0.5149   0.8765   1.0667
     1.3603   1.7784   2.0113   2.3952   2.6177   2.8851   2.9988   3.4233
     3.7104   4.0320   4.3357   4.4996   4.6840   4.9058   5.0082   5.2689
     5.4017   5.9916   6.5725   7.3492   8.8320  10.1042  10.8347  11.4521
    12.4408  13.8096  14.8650  15.9969

          k = 0.0625-0.3248-0.0673 (  4460 PWs)   bands (ev):

   -99.2524 -98.5554 -98.4836 -98.0487 -50.5920 -50.5697 -50.4954 -49.8931
   -49.8795 -49.8127 -49.8040 -49.7648 -49.7398 -49.3964 -49.3245 -49.2646
   -14.4729  -3.2309  -0.4343   0.0771   0.4869   0.6779   1.1880   1.3118
     1.5436   1.7943   2.1544   2.2494   2.4211   2.6689   2.9937   3.0701
     3.3610   3.4230   3.5669   3.7688   3.9996   4.1314   4.4144   4.5769
     4.8442   5.0906   5.3192   6.9749   8.3986   9.6313  10.4273  12.3985
    14.5032  15.0990  15.6539  16.2684

          k = 0.0625-0.1804-0.0673 (  4490 PWs)   bands (ev):

   -99.2553 -98.5584 -98.4865 -98.0517 -50.6004 -50.5084 -50.4781 -49.8992
   -49.8222 -49.7902 -49.7678 -49.7503 -49.7231 -49.3368 -49.3074 -49.2704
   -14.6768  -3.9431  -1.4258  -0.5089   0.0636   0.7327   1.1008   1.4355
     1.8468   2.1708   2.2708   2.3483   2.4559   2.7272   2.8863   2.9479
     3.0577   3.1454   3.2376   3.6054   3.6729   3.8223   4.0159   4.2047
     4.4023   4.8251   5.1089   5.9241   8.1150   9.8208  10.7483  11.4177
    13.2612  13.8478  15.2112  15.7035

          k = 0.0625-0.0361-0.0673 (  4520 PWs)   bands (ev):

   -99.2570 -98.5601 -98.4882 -98.0533 -50.6052 -50.4733 -50.4684 -49.9060
   -49.7864 -49.7798 -49.7685 -49.7183 -49.7136 -49.3026 -49.2979 -49.2738
   -14.7879  -4.3470  -2.0414  -0.9654  -0.4674   0.1633   1.2470   1.7559
     1.9110   2.1612   2.4387   2.5516   2.5665   2.6769   2.7245   3.0950
     3.1872   3.2352   3.2939   3.5174   3.7752   3.7844   4.1017   4.1421
     4.5760   4.7463   5.1071   5.1707   7.0201  10.6161  10.9374  11.0883
    12.7041  13.2837  14.7551  15.0537

          k = 0.1875 0.3248-0.0673 (  4450 PWs)   bands (ev):

   -99.2514 -98.5544 -98.4826 -98.0478 -50.5892 -50.5802 -50.5108 -49.8971
   -49.8827 -49.8306 -49.8102 -49.7651 -49.7544 -49.4065 -49.3394 -49.2627
   -14.4043  -2.9818  -0.0270   0.3420   0.6499   0.8169   1.2261   1.2980
     1.6033   1.7398   1.9343   2.1116   2.2971   2.4611   2.8032   3.0255
     3.1240   3.2994   3.5865   3.7023   4.2233   4.3691   4.5619   4.9933
     5.1247   5.4329   5.9272   7.5096   8.2713   9.9117  10.0755  12.9804
    15.0351  15.4737  15.7554  15.9267

          k = 0.1875 0.4691-0.0673 (  4428 PWs)   bands (ev):

   -99.2493 -98.5523 -98.4805 -98.0457 -50.6117 -50.5832 -50.5355 -49.9251
   -49.8887 -49.8517 -49.8321 -49.7782 -49.7653 -49.4371 -49.3636 -49.2585
   -14.2493  -2.4152   0.0262   0.3656   0.7049   0.8457   1.1260   1.2687
     1.5190   1.7485   1.8509   2.0614   2.4948   2.6968   2.8603   3.0276
     3.3634   3.7206   3.7985   4.0194   4.3663   4.7282   4.9937   5.3961
     5.4896   7.0818   7.3474   8.0344   9.0891   9.8169  11.4133  11.9309
    12.7787  13.9203  14.7949  15.3079

          k = 0.1875 0.6134-0.0673 (  4432 PWs)   bands (ev):

   -99.2488 -98.5518 -98.4801 -98.0452 -50.6187 -50.5818 -50.5417 -49.9319
   -49.8914 -49.8559 -49.8363 -49.7832 -49.7659 -49.4438 -49.3696 -49.2575
   -14.2121  -2.2677  -0.0950   0.3564   0.7279   0.8332   1.0494   1.2897
     1.4408   1.7650   1.8264   2.0025   2.5809   2.7935   2.8794   3.0575
     3.4195   3.8708   4.1008   4.1920   4.5551   4.7987   5.0248   5.3232
     5.6565   7.0140   8.3035   8.8493   9.3443   9.9971  10.8137  11.3589
    12.5134  12.9929  14.0280  15.4078

          k = 0.1875-0.3969-0.0673 (  4450 PWs)   bands (ev):

   -99.2502 -98.5532 -98.4815 -98.0466 -50.5984 -50.5858 -50.5244 -49.9125
   -49.8853 -49.8437 -49.8230 -49.7693 -49.7636 -49.4242 -49.3528 -49.2603
   -14.3172  -2.6693   0.1505   0.3835   0.6662   0.8035   1.1817   1.3188
     1.6147   1.6972   1.9130   2.1167   2.2933   2.5141   2.9347   3.0801
     3.1533   3.3878   3.6311   3.8052   4.2612   4.6659   4.7798   5.2360
     5.3614   6.1761   6.8407   7.7033   8.5495   9.5870  10.7498  13.4100
    14.0173  14.5399  15.3125  15.9672

          k = 0.1875-0.2526-0.0673 (  4452 PWs)   bands (ev):

   -99.2527 -98.5558 -98.4839 -98.0491 -50.5929 -50.5591 -50.4972 -49.8917
   -49.8704 -49.8140 -49.7960 -49.7643 -49.7417 -49.3861 -49.3262 -49.2652
   -14.4966  -3.3073  -0.4652   0.1239   0.5923   0.8807   1.1601   1.3826
     1.5109   1.8778   1.9366   2.2141   2.3073   2.6185   2.7675   2.9898
     3.1943   3.2853   3.5663   3.6415   3.9742   4.1335   4.3585   4.5675
     4.8763   5.0104   5.3495   6.9275   8.5201   9.5998  10.2862  12.2909
    14.3536  14.9377  15.9964  16.6526

          k = 0.1875-0.1083-0.0673 (  4480 PWs)   bands (ev):

   -99.2548 -98.5579 -98.4860 -98.0512 -50.5990 -50.5197 -50.4801 -49.8974
   -49.8334 -49.7918 -49.7706 -49.7585 -49.7249 -49.3478 -49.3094 -49.2694
   -14.6431  -3.8238  -1.2469  -0.3923   0.1873   0.8451   1.0181   1.4511
     1.7515   2.0959   2.2608   2.3447   2.5011   2.7734   2.7856   2.9163
     3.1602   3.1636   3.3138   3.6231   3.6290   3.8292   4.0507   4.1524
     4.5735   4.7166   5.1862   6.1024   8.3191   9.6144  10.7518  11.5188
    13.4423  14.0321  15.3495  15.8949

          k = 0.3125 0.5413-0.0673 (  4434 PWs)   bands (ev):

   -99.2483 -98.5513 -98.4796 -98.0447 -50.5965 -50.5805 -50.5760 -49.9104
   -49.8903 -49.8807 -49.8304 -49.8088 -49.7657 -49.4226 -49.4027 -49.2566
   -14.1795  -2.1122   0.3225   0.5940   0.6781   1.0510   1.1991   1.4219
     1.4966   1.7937   1.9990   2.0050   2.3285   2.6168   2.7154   3.2649
     3.3923   3.4573   3.7394   4.0510   4.1471   4.8224   4.9827   5.1049
     5.8627   7.0919   8.1230   9.4528  10.4769  10.6101  10.8323  12.1818
    12.4446  13.2311  13.9351  14.8163

          k = 0.3125 0.6856-0.0673 (  4444 PWs)   bands (ev):

   -99.2487 -98.5517 -98.4799 -98.0450 -50.6073 -50.5815 -50.5563 -49.9207
   -49.8855 -49.8706 -49.8322 -49.7958 -49.7656 -49.4329 -49.3838 -49.2573
   -14.2041  -2.2231   0.1807   0.5007   0.7589   0.9584   1.2189   1.3382
     1.5347   1.7687   1.8758   2.0171   2.4418   2.6185   2.7287   3.1733
     3.2956   3.5971   3.7677   4.0032   4.2294   4.7720   5.0256   5.3039
     5.7004   7.2055   8.1781   8.5258   9.4595  10.7348  11.1889  11.9080
    12.7917  13.1411  14.2441  14.6180

          k = 0.3125-0.3248-0.0673 (  4428 PWs)   bands (ev):

   -99.2501 -98.5531 -98.4813 -98.0465 -50.6087 -50.5855 -50.5172 -49.9224
   -49.8894 -49.8386 -49.8259 -49.7662 -49.7602 -49.4341 -49.3457 -49.2601
   -14.3081  -2.6478  -0.1267   0.2687   0.4990   0.7013   1.0488   1.1768
     1.5307   1.7252   1.9006   2.2320   2.5468   2.7404   2.9724   3.0793
     3.4729   3.7387   3.9115   4.1312   4.4178   4.6728   4.7972   5.2587
     5.3374   6.1022   6.7218   7.5169   8.6696   9.8127  10.7753  12.4548
    13.3772  14.2748  15.2139  16.2560

          k = 0.3125-0.1804-0.0673 (  4442 PWs)   bands (ev):

   -99.2517 -98.5548 -98.4830 -98.0481 -50.5903 -50.5848 -50.4966 -49.9011
   -49.8864 -49.8206 -49.8087 -49.7655 -49.7408 -49.4110 -49.3257 -49.2634
   -14.4290  -3.0842  -0.3664   0.0781   0.3869   0.5691   1.0948   1.2063
     1.5102   1.8054   2.2754   2.2896   2.5193   2.7228   3.0268   3.2147
     3.4666   3.7664   3.8061   3.9070   4.1056   4.3879   4.4582   4.6277
     4.8927   5.2193   5.3204   7.1147   8.2516   9.7952  10.4682  12.6462
    14.6304  14.7667  15.3895  15.9210

          k = 0.4375 0.7578-0.0673 (  4420 PWs)   bands (ev):

   -99.2490 -98.5520 -98.4803 -98.0454 -50.6290 -50.5825 -50.5255 -49.9421
   -49.8983 -49.8417 -49.8371 -49.7687 -49.7663 -49.4537 -49.3539 -49.2580
   -14.2273  -2.3465  -0.3518   0.2034   0.4632   0.6389   0.8881   1.1082
     1.4824   1.6587   1.8423   2.2846   2.5812   2.8200   2.9971   3.3524
     3.6625   3.9834   4.4119   4.6171   4.7981   4.8508   5.1760   5.3729
     5.5921   6.8341   8.1467   8.7164   9.3280   9.4394  10.2634  11.2465
    11.7806  13.2255  13.4320  16.0207

          k = 0.4375-0.2526-0.0673 (  4396 PWs)   bands (ev):

   -99.2496 -98.5526 -98.4808 -98.0460 -50.6305 -50.5841 -50.5083 -49.9437
   -49.9005 -49.8418 -49.8206 -49.7674 -49.7521 -49.4551 -49.3371 -49.2592
   -14.2700  -2.5314  -0.5089   0.0890   0.2049   0.4160   0.7815   0.9900
     1.2700   1.7804   2.0969   2.3923   2.7095   2.9187   3.0226   3.4777
     4.0500   4.2106   4.4441   4.4930   5.0139   5.1772   5.2707   5.3298
     5.6811   6.1027   6.7248   7.3686   9.0556  10.2281  10.4281  11.1636
    11.7233  13.0719  14.5972  15.5717

          k = 0.1250 0.0000-0.0673 (  4518 PWs)   bands (ev):

   -99.2564 -98.5595 -98.4876 -98.0528 -50.6035 -50.4857 -50.4718 -49.9036
   -49.7995 -49.7833 -49.7675 -49.7300 -49.7169 -49.3147 -49.3012 -49.2726
   -14.7492  -4.2050  -1.8268  -0.8021  -0.2778   0.3721   1.2021   1.6181
     2.0425   2.0570   2.3354   2.5201   2.5941   2.6475   2.8670   2.9960
     3.1252   3.1647   3.2798   3.3929   3.7420   3.7778   4.0801   4.1963
     4.4537   4.7793   5.0972   5.4342   7.4892  10.2938  10.8696  11.2063
    12.8915  13.4734  14.9167  15.2789

          k =-0.1875 0.1804-0.0673 (  4466 PWs)   bands (ev):

   -99.2539 -98.5570 -98.4851 -98.0503 -50.5964 -50.5379 -50.4864 -49.8944
   -49.8510 -49.7994 -49.7814 -49.7634 -49.7311 -49.3655 -49.3156 -49.2676
   -14.5802  -3.6016  -0.9096  -0.1683   0.4087   0.8686   1.1280   1.3553
     1.6260   1.9532   2.1196   2.3504   2.4421   2.7077   2.8050   2.9398
     3.1605   3.2351   3.5477   3.5841   3.6999   3.9843   4.0913   4.2988
     4.5484   4.9382   5.1576   6.4532   8.5654   9.4337  10.5946  11.7995
    13.8074  14.3983  15.6258  16.2644

          k = 0.2500 0.0722-0.0673 (  4466 PWs)   bands (ev):

   -99.2539 -98.5570 -98.4851 -98.0503 -50.5964 -50.5379 -50.4865 -49.8944
   -49.8510 -49.7994 -49.7814 -49.7634 -49.7311 -49.3655 -49.3156 -49.2676
   -14.5802  -3.6016  -0.9095  -0.1682   0.4086   0.8686   1.1280   1.3551
     1.6260   1.9533   2.1196   2.3502   2.4424   2.7078   2.8051   2.9398
     3.1606   3.2348   3.5477   3.5841   3.6998   3.9844   4.0914   4.2988
     4.5484   4.9384   5.1576   6.4534   8.5652   9.4341  10.5921  11.8009
    13.8077  14.3986  15.6259  16.2649

          k =-0.3125 0.2526-0.0673 (  4438 PWs)   bands (ev):

   -99.2509 -98.5540 -98.4822 -98.0473 -50.5990 -50.5880 -50.5037 -49.9135
   -49.8884 -49.8307 -49.8152 -49.7658 -49.7477 -49.4247 -49.3327 -49.2618
   -14.3711  -2.8818  -0.2629   0.1804   0.3502   0.5858   1.0420   1.1622
     1.4673   1.7738   2.0993   2.3383   2.5610   2.7404   3.0342   3.2008
     3.5111   3.8086   4.0035   4.0783   4.2923   4.4727   4.7245   4.9805
     5.1448   5.3430   5.7887   7.3537   8.2447  10.1169  10.2941  12.9331
    13.7136  14.6087  15.4919  16.0318

          k = 0.3750 0.1443-0.0673 (  4438 PWs)   bands (ev):

   -99.2509 -98.5540 -98.4822 -98.0473 -50.5990 -50.5880 -50.5038 -49.9135
   -49.8884 -49.8307 -49.8152 -49.7658 -49.7477 -49.4247 -49.3327 -49.2618
   -14.3711  -2.8818  -0.2628   0.1803   0.3502   0.5857   1.0420   1.1622
     1.4674   1.7738   2.0994   2.3383   2.5611   2.7404   3.0344   3.2007
     3.5108   3.8083   4.0036   4.0785   4.2923   4.4726   4.7244   4.9805
     5.1449   5.3430   5.7888   7.3536   8.2450  10.1145  10.2958  12.9334
    13.7136  14.6084  15.4920  16.0325

          k =-0.4375 0.3248-0.0673 (  4394 PWs)   bands (ev):

   -99.2493 -98.5523 -98.4805 -98.0457 -50.6333 -50.5833 -50.5135 -49.9465
   -49.9018 -49.8419 -49.8260 -49.7673 -49.7571 -49.4579 -49.3423 -49.2586
   -14.2475  -2.4411  -0.4999   0.1094   0.2626   0.4664   0.7804   1.0138
     1.3008   1.7671   1.9749   2.4508   2.5900   2.9064   3.0370   3.4702
     3.9400   4.1385   4.5023   4.6751   4.9797   5.0413   5.2913   5.4814
     5.5847   6.6168   7.3010   7.9934   9.1628   9.8961  10.1970  10.9903
    11.7846  12.6921  13.9429  15.8455

          k = 0.5000 0.2165-0.0673 (  4394 PWs)   bands (ev):

   -99.2493 -98.5523 -98.4805 -98.0457 -50.6333 -50.5833 -50.5135 -49.9465
   -49.9018 -49.8419 -49.8260 -49.7673 -49.7571 -49.4579 -49.3423 -49.2586
   -14.2475  -2.4411  -0.4999   0.1093   0.2626   0.4664   0.7803   1.0138
     1.3008   1.7671   1.9750   2.4508   2.5899   2.9064   3.0370   3.4701
     3.9401   4.1384   4.5023   4.6751   4.9797   5.0413   5.2913   5.4813
     5.5847   6.6168   7.3010   7.9934   9.1628   9.8967  10.1964  10.9902
    11.7847  12.6923  13.9425  15.8455

          k = 0.4375-0.1804-0.0673 (  4416 PWs)   bands (ev):

   -99.2499 -98.5529 -98.4811 -98.0462 -50.6213 -50.5849 -50.5101 -49.9348
   -49.8954 -49.8398 -49.8223 -49.7667 -49.7538 -49.4463 -49.3389 -49.2597
   -14.2914  -2.6022  -0.3765   0.1483   0.2948   0.5147   0.8768   1.0662
     1.3597   1.7784   2.0114   2.3952   2.6176   2.8851   2.9991   3.4230
     3.7104   4.0322   4.3360   4.4996   4.6839   4.9059   5.0082   5.2689
     5.4019   5.9922   6.5741   7.3480   8.8301  10.1038  10.8348  11.4510
    12.4410  13.8102  14.8642  15.9970

          k =-0.3750-0.2887-0.0673 (  4416 PWs)   bands (ev):

   -99.2499 -98.5529 -98.4811 -98.0462 -50.6213 -50.5849 -50.5101 -49.9348
   -49.8954 -49.8398 -49.8223 -49.7667 -49.7538 -49.4463 -49.3389 -49.2597
   -14.2914  -2.6022  -0.3766   0.1484   0.2947   0.5147   0.8768   1.0662
     1.3596   1.7785   2.0113   2.3951   2.6176   2.8852   2.9988   3.4233
     3.7102   4.0324   4.3359   4.4997   4.6840   4.9059   5.0082   5.2690
     5.4018   5.9922   6.5741   7.3481   8.8297  10.1047  10.8341  11.4510
    12.4411  13.8102  14.8644  15.9972

          k = 0.3125-0.1083-0.0673 (  4460 PWs)   bands (ev):

   -99.2524 -98.5554 -98.4836 -98.0487 -50.5920 -50.5697 -50.4955 -49.8931
   -49.8795 -49.8126 -49.8040 -49.7649 -49.7398 -49.3964 -49.3245 -49.2646
   -14.4729  -3.2308  -0.4342   0.0771   0.4868   0.6778   1.1880   1.3118
     1.5436   1.7944   2.1543   2.2494   2.4211   2.6690   2.9937   3.0703
     3.3610   3.4227   3.5668   3.7690   3.9996   4.1316   4.4143   4.5769
     4.8442   5.0908   5.3197   6.9762   8.3958   9.6309  10.4264  12.3996
    14.5038  15.0993  15.6533  16.2687

          k =-0.2500-0.2165-0.0673 (  4460 PWs)   bands (ev):

   -99.2524 -98.5554 -98.4836 -98.0487 -50.5920 -50.5697 -50.4954 -49.8931
   -49.8795 -49.8126 -49.8040 -49.7648 -49.7398 -49.3964 -49.3245 -49.2646
   -14.4729  -3.2308  -0.4343   0.0771   0.4869   0.6778   1.1880   1.3118
     1.5436   1.7943   2.1543   2.2493   2.4210   2.6689   2.9937   3.0701
     3.3610   3.4232   3.5669   3.7688   3.9996   4.1314   4.4145   4.5769
     4.8442   5.0907   5.3196   6.9760   8.3959   9.6308  10.4278  12.3988
    14.5035  15.0989  15.6533  16.2693

          k = 0.1875-0.0361-0.0673 (  4490 PWs)   bands (ev):

   -99.2553 -98.5584 -98.4865 -98.0517 -50.6004 -50.5084 -50.4781 -49.8992
   -49.8222 -49.7901 -49.7678 -49.7503 -49.7231 -49.3368 -49.3074 -49.2704
   -14.6768  -3.9431  -1.4258  -0.5089   0.0636   0.7327   1.1003   1.4357
     1.8468   2.1710   2.2708   2.3484   2.4560   2.7271   2.8864   2.9480
     3.0578   3.1453   3.2374   3.6054   3.6729   3.8223   4.0159   4.2049
     4.4024   4.8252   5.1089   5.9244   8.1150   9.8194  10.7459  11.4200
    13.2615  13.8481  15.2113  15.7043

          k =-0.1250-0.1443-0.0673 (  4490 PWs)   bands (ev):

   -99.2553 -98.5584 -98.4865 -98.0517 -50.6004 -50.5084 -50.4781 -49.8992
   -49.8222 -49.7902 -49.7678 -49.7503 -49.7231 -49.3368 -49.3074 -49.2704
   -14.6768  -3.9431  -1.4258  -0.5089   0.0636   0.7327   1.1004   1.4358
     1.8468   2.1708   2.2709   2.3483   2.4559   2.7272   2.8863   2.9479
     3.0576   3.1454   3.2376   3.6054   3.6729   3.8223   4.0159   4.2047
     4.4024   4.8251   5.1089   5.9242   8.1150   9.8195  10.7489  11.4178
    13.2612  13.8479  15.2112  15.7037

          k = 0.0000-0.0722-0.0673 (  4520 PWs)   bands (ev):

   -99.2570 -98.5601 -98.4882 -98.0533 -50.6052 -50.4733 -50.4684 -49.9060
   -49.7863 -49.7798 -49.7685 -49.7183 -49.7136 -49.3026 -49.2979 -49.2738
   -14.7879  -4.3470  -2.0414  -0.9654  -0.4674   0.1633   1.2470   1.7559
     1.9110   2.1612   2.4387   2.5517   2.5665   2.6769   2.7245   3.0950
     3.1872   3.2349   3.2941   3.5173   3.7754   3.7842   4.1017   4.1421
     4.5759   4.7462   5.1071   5.1707   7.0200  10.6171  10.9376  11.0874
    12.7040  13.2837  14.7551  15.0535

          k = 0.3750 0.0000-0.0673 (  4450 PWs)   bands (ev):

   -99.2514 -98.5544 -98.4826 -98.0478 -50.5892 -50.5802 -50.5108 -49.8971
   -49.8827 -49.8306 -49.8102 -49.7651 -49.7544 -49.4065 -49.3394 -49.2627
   -14.4043  -2.9818  -0.0268   0.3417   0.6500   0.8166   1.2262   1.2980
     1.6033   1.7397   1.9343   2.1123   2.2971   2.4611   2.8031   3.0252
     3.1239   3.2995   3.5862   3.7021   4.2237   4.3688   4.5620   4.9934
     5.1247   5.4329   5.9276   7.5104   8.2701   9.9085  10.0771  12.9813
    15.0359  15.4736  15.7557  15.9252

          k =-0.3125 0.3969-0.0673 (  4428 PWs)   bands (ev):

   -99.2493 -98.5523 -98.4805 -98.0457 -50.6117 -50.5832 -50.5355 -49.9251
   -49.8887 -49.8517 -49.8321 -49.7782 -49.7653 -49.4371 -49.3636 -49.2585
   -14.2493  -2.4152   0.0261   0.3660   0.7050   0.8456   1.1259   1.2687
     1.5188   1.7483   1.8510   2.0614   2.4947   2.6966   2.8603   3.0276
     3.3637   3.7206   3.7985   4.0196   4.3662   4.7285   4.9935   5.3961
     5.4897   7.0831   7.3471   8.0330   9.0894   9.8166  11.4135  11.9298
    12.7787  13.9203  14.7959  15.3072

          k = 0.5000 0.0722-0.0673 (  4428 PWs)   bands (ev):

   -99.2493 -98.5523 -98.4805 -98.0457 -50.6117 -50.5832 -50.5355 -49.9251
   -49.8887 -49.8517 -49.8321 -49.7782 -49.7653 -49.4371 -49.3636 -49.2585
   -14.2493  -2.4152   0.0261   0.3658   0.7051   0.8456   1.1260   1.2687
     1.5188   1.7487   1.8510   2.0614   2.4947   2.6964   2.8603   3.0276
     3.3634   3.7207   3.7985   4.0196   4.3663   4.7284   4.9933   5.3963
     5.4897   7.0829   7.3465   8.0340   9.0898   9.8156  11.4140  11.9300
    12.7785  13.9193  14.7957  15.3069

          k =-0.4375 0.4691-0.0673 (  4432 PWs)   bands (ev):

   -99.2488 -98.5518 -98.4801 -98.0452 -50.6186 -50.5818 -50.5417 -49.9320
   -49.8914 -49.8558 -49.8363 -49.7832 -49.7659 -49.4438 -49.3696 -49.2575
   -14.2121  -2.2678  -0.0951   0.3567   0.7281   0.8330   1.0493   1.2897
     1.4408   1.7649   1.8266   2.0026   2.5803   2.7935   2.8796   3.0573
     3.4195   3.8712   4.1008   4.1922   4.5552   4.7986   5.0247   5.3232
     5.6567   7.0137   8.3035   8.8502   9.3441   9.9968  10.8122  11.3588
    12.5123  12.9935  14.0279  15.4074

          k = 0.6250 0.1443-0.0673 (  4432 PWs)   bands (ev):

   -99.2488 -98.5518 -98.4801 -98.0452 -50.6186 -50.5818 -50.5417 -49.9320
   -49.8914 -49.8558 -49.8363 -49.7832 -49.7659 -49.4438 -49.3696 -49.2575
   -14.2121  -2.2678  -0.0951   0.3568   0.7280   0.8330   1.0493   1.2897
     1.4408   1.7648   1.8266   2.0026   2.5804   2.7937   2.8794   3.0573
     3.4196   3.8711   4.1008   4.1922   4.5552   4.7987   5.0248   5.3231
     5.6566   7.0142   8.3032   8.8496   9.3445   9.9969  10.8124  11.3586
    12.5129  12.9925  14.0290  15.4076

          k = 0.4375-0.0361-0.0673 (  4450 PWs)   bands (ev):

   -99.2502 -98.5532 -98.4815 -98.0466 -50.5984 -50.5858 -50.5245 -49.9125
   -49.8853 -49.8436 -49.8230 -49.7693 -49.7636 -49.4242 -49.3528 -49.2603
   -14.3172  -2.6693   0.1506   0.3834   0.6663   0.8034   1.1817   1.3188
     1.6146   1.6971   1.9135   2.1167   2.2934   2.5141   2.9341   3.0802
     3.1534   3.3879   3.6309   3.8052   4.2614   4.6661   4.7793   5.2363
     5.3613   6.1762   6.8416   7.7023   8.5498   9.5849  10.7507  13.4099
    14.0176  14.5392  15.3118  15.9676

          k =-0.2500-0.3608-0.0673 (  4450 PWs)   bands (ev):

   -99.2502 -98.5532 -98.4815 -98.0466 -50.5984 -50.5858 -50.5244 -49.9125
   -49.8853 -49.8437 -49.8230 -49.7693 -49.7636 -49.4242 -49.3528 -49.2603
   -14.3172  -2.6693   0.1502   0.3840   0.6663   0.8035   1.1817   1.3189
     1.6145   1.6972   1.9128   2.1167   2.2933   2.5141   2.9346   3.0802
     3.1535   3.3879   3.6308   3.8055   4.2612   4.6661   4.7797   5.2360
     5.3614   6.1762   6.8412   7.7031   8.5484   9.5875  10.7496  13.4099
    14.0173  14.5399  15.3127  15.9671

          k = 0.3125 0.0361-0.0673 (  4452 PWs)   bands (ev):

   -99.2527 -98.5558 -98.4839 -98.0491 -50.5929 -50.5591 -50.4973 -49.8917
   -49.8704 -49.8139 -49.7960 -49.7643 -49.7417 -49.3861 -49.3262 -49.2652
   -14.4966  -3.3073  -0.4651   0.1239   0.5921   0.8807   1.1600   1.3826
     1.5109   1.8778   1.9366   2.2142   2.3076   2.6185   2.7675   2.9899
     3.1939   3.2852   3.5664   3.6412   3.9741   4.1340   4.3584   4.5675
     4.8763   5.0105   5.3497   6.9280   8.5195   9.6004  10.2834  12.2922
    14.3541  14.9382  15.9967  16.6519

          k =-0.1250-0.2887-0.0673 (  4452 PWs)   bands (ev):

   -99.2527 -98.5558 -98.4839 -98.0491 -50.5929 -50.5592 -50.4972 -49.8917
   -49.8704 -49.8140 -49.7960 -49.7643 -49.7417 -49.3861 -49.3262 -49.2652
   -14.4966  -3.3073  -0.4652   0.1239   0.5923   0.8809   1.1600   1.3826
     1.5109   1.8778   1.9366   2.2141   2.3074   2.6185   2.7674   2.9897
     3.1942   3.2853   3.5664   3.6414   3.9742   4.1335   4.3584   4.5675
     4.8763   5.0104   5.3493   6.9271   8.5211   9.6002  10.2857  12.2908
    14.3535  14.9377  15.9965  16.6523

          k = 0.0000-0.2165-0.0673 (  4480 PWs)   bands (ev):

   -99.2548 -98.5579 -98.4860 -98.0512 -50.5990 -50.5197 -50.4801 -49.8974
   -49.8334 -49.7918 -49.7706 -49.7585 -49.7249 -49.3478 -49.3094 -49.2694
   -14.6431  -3.8238  -1.2469  -0.3924   0.1873   0.8452   1.0187   1.4507
     1.7514   2.0958   2.2607   2.3447   2.5011   2.7734   2.7857   2.9164
     3.1603   3.1636   3.3139   3.6230   3.6290   3.8292   4.0506   4.1524
     4.5735   4.7164   5.1862   6.1020   8.3191   9.6168  10.7519  11.5177
    13.4421  14.0320  15.3495  15.8944

          k = 0.6250 0.0000-0.0673 (  4434 PWs)   bands (ev):

   -99.2483 -98.5513 -98.4796 -98.0447 -50.5965 -50.5805 -50.5760 -49.9104
   -49.8903 -49.8807 -49.8304 -49.8088 -49.7657 -49.4226 -49.4027 -49.2566
   -14.1795  -2.1122   0.3225   0.5946   0.6775   1.0509   1.1992   1.4219
     1.4966   1.7936   1.9991   2.0050   2.3285   2.6165   2.7154   3.2649
     3.3924   3.4573   3.7393   4.0512   4.1471   4.8223   4.9827   5.1049
     5.8629   7.0909   8.1240   9.4527  10.4769  10.6098  10.8329  12.1808
    12.4445  13.2316  13.9333  14.8168

          k =-0.4375 0.6134-0.0673 (  4444 PWs)   bands (ev):

   -99.2487 -98.5517 -98.4799 -98.0450 -50.6073 -50.5815 -50.5563 -49.9208
   -49.8855 -49.8706 -49.8322 -49.7958 -49.7656 -49.4329 -49.3838 -49.2573
   -14.2041  -2.2231   0.1805   0.5009   0.7588   0.9584   1.2189   1.3382
     1.5349   1.7688   1.8758   2.0172   2.4418   2.6185   2.7283   3.1733
     3.2956   3.5971   3.7678   4.0033   4.2294   4.7719   5.0255   5.3041
     5.7005   7.2041   8.1795   8.5262   9.4589  10.7349  11.1892  11.9077
    12.7916  13.1407  14.2426  14.6187

          k = 0.7500 0.0722-0.0673 (  4444 PWs)   bands (ev):

   -99.2487 -98.5517 -98.4799 -98.0450 -50.6073 -50.5815 -50.5563 -49.9207
   -49.8855 -49.8706 -49.8322 -49.7958 -49.7656 -49.4329 -49.3838 -49.2573
   -14.2041  -2.2231   0.1803   0.5013   0.7587   0.9584   1.2188   1.3382
     1.5348   1.7688   1.8757   2.0171   2.4420   2.6186   2.7288   3.1733
     3.2954   3.5971   3.7679   4.0030   4.2294   4.7719   5.0256   5.3039
     5.7003   7.2055   8.1784   8.5255   9.4595  10.7347  11.1894  11.9082
    12.7918  13.1417  14.2436  14.6175

          k = 0.4375 0.1083-0.0673 (  4428 PWs)   bands (ev):

   -99.2501 -98.5531 -98.4813 -98.0465 -50.6086 -50.5855 -50.5172 -49.9224
   -49.8894 -49.8386 -49.8259 -49.7662 -49.7602 -49.4341 -49.3458 -49.2601
   -14.3081  -2.6478  -0.1266   0.2684   0.4991   0.7013   1.0487   1.1769
     1.5308   1.7254   1.9008   2.2320   2.5469   2.7403   2.9726   3.0793
     3.4724   3.7388   3.9115   4.1312   4.4180   4.6726   4.7971   5.2588
     5.3375   6.1022   6.7219   7.5166   8.6707   9.8106  10.7765  12.4546
    13.3772  14.2747  15.2133  16.2561

          k =-0.1250-0.4330-0.0673 (  4428 PWs)   bands (ev):

   -99.2501 -98.5531 -98.4813 -98.0465 -50.6087 -50.5855 -50.5172 -49.9224
   -49.8894 -49.8386 -49.8259 -49.7662 -49.7602 -49.4341 -49.3457 -49.2601
   -14.3080  -2.6478  -0.1261   0.2678   0.4988   0.7014   1.0486   1.1771
     1.5312   1.7253   1.9006   2.2321   2.5468   2.7405   2.9725   3.0794
     3.4727   3.7385   3.9115   4.1311   4.4178   4.6726   4.7972   5.2586
     5.3374   6.1019   6.7205   7.5177   8.6719   9.8117  10.7759  12.4553
    13.3767  14.2752  15.2135  16.2567

          k = 0.0000-0.3608-0.0673 (  4442 PWs)   bands (ev):

   -99.2517 -98.5548 -98.4830 -98.0481 -50.5903 -50.5848 -50.4966 -49.9011
   -49.8863 -49.8206 -49.8087 -49.7655 -49.7408 -49.4110 -49.3257 -49.2634
   -14.4290  -3.0842  -0.3662   0.0781   0.3865   0.5691   1.0947   1.2063
     1.5105   1.8054   2.2756   2.2897   2.5192   2.7228   3.0268   3.2147
     3.4665   3.7664   3.8058   3.9069   4.1055   4.3878   4.4582   4.6277
     4.8927   5.2193   5.3195   7.1129   8.2554   9.7955  10.4683  12.6455
    14.6308  14.7662  15.3899  15.9212

          k = 0.8750 0.0000-0.0673 (  4420 PWs)   bands (ev):

   -99.2490 -98.5520 -98.4803 -98.0454 -50.6290 -50.5825 -50.5255 -49.9421
   -49.8983 -49.8417 -49.8371 -49.7687 -49.7663 -49.4538 -49.3539 -49.2580
   -14.2273  -2.3465  -0.3513   0.2022   0.4630   0.6392   0.8878   1.1091
     1.4827   1.6588   1.8418   2.2847   2.5814   2.8201   2.9971   3.3526
     3.6624   3.9831   4.4119   4.6168   4.7982   4.8508   5.1759   5.3729
     5.5921   6.8332   8.1467   8.7164   9.3281   9.4395  10.2656  11.2477
    11.7805  13.2240  13.4329  16.0204

          k = 0.0000-0.5052-0.0673 (  4396 PWs)   bands (ev):

[...]
     3.6646   3.7937   4.0735   4.2585   4.4488   4.6106   4.9204   5.1323
     5.2955   5.5216   5.9327   7.4902   8.5479  10.2612  10.7881  13.0221
    13.9106  14.7525  15.4714  15.9303

          k = 0.3750 0.1443-0.0673 (  4438 PWs)   bands (ev):

   -99.5035 -98.3558 -98.1880 -97.7555 -50.8570 -50.8543 -50.7601 -49.7097
   -49.6354 -49.6157 -49.5491 -49.4577 -49.4383 -49.1383 -49.0455 -48.9455
   -16.0971  -3.4827  -0.9711  -0.2410   0.5026   0.9057   1.1002   1.2017
     1.4260   1.6621   2.0596   2.3139   2.6919   2.9588   3.1155   3.4504
     3.6654   3.7946   4.0730   4.2583   4.4491   4.6107   4.9203   5.1323
     5.2954   5.5216   5.9326   7.4902   8.5484  10.2615  10.7878  13.0220
    13.9108  14.7524  15.4715  15.9300

          k =-0.4375 0.3248-0.0673 (  4394 PWs)   bands (ev):

   -99.5018 -98.3542 -98.1864 -97.7538 -50.8899 -50.8515 -50.7699 -49.7436
   -49.6336 -49.6254 -49.5798 -49.4673 -49.4351 -49.1718 -49.0551 -48.9418
   -15.9862  -3.1193  -1.4692  -0.2468   0.4582   0.8578   0.9528   1.0674
     1.2828   1.5767   2.0569   2.5132   2.8457   2.9189   3.1273   3.6196
     4.1059   4.2649   4.4977   4.7595   5.0935   5.2473   5.4737   5.5591
     5.8371   6.7568   7.4948   8.2214   9.3919  10.3701  10.5570  11.3071
    12.1681  12.6226  13.9352  15.5573

          k = 0.5000 0.2165-0.0673 (  4394 PWs)   bands (ev):

   -99.5018 -98.3542 -98.1864 -97.7538 -50.8898 -50.8515 -50.7699 -49.7436
   -49.6336 -49.6254 -49.5798 -49.4673 -49.4351 -49.1718 -49.0551 -48.9418
   -15.9862  -3.1192  -1.4693  -0.2468   0.4585   0.8579   0.9523   1.0673
     1.2828   1.5767   2.0569   2.5131   2.8459   2.9184   3.1273   3.6197
     4.1057   4.2649   4.4978   4.7597   5.0936   5.2473   5.4737   5.5592
     5.8371   6.7570   7.4948   8.2214   9.3919  10.3696  10.5573  11.3072
    12.1678  12.6225  13.9351  15.5573

          k = 0.4375-0.1804-0.0673 (  4416 PWs)   bands (ev):

   -99.5024 -98.3547 -98.1870 -97.7544 -50.8777 -50.8531 -50.7665 -49.7317
   -49.6338 -49.6220 -49.5694 -49.4640 -49.4362 -49.1601 -49.0517 -48.9431
   -16.0255  -3.2503  -1.2822  -0.2447   0.4901   0.8962   1.0104   1.1305
     1.3345   1.6106   2.0521   2.4405   2.8052   2.9156   3.1073   3.6115
     3.8905   4.1576   4.3415   4.5724   4.8457   5.0650   5.1819   5.3550
     5.6115   6.2344   6.7912   7.5634   9.0002  10.5596  10.9647  11.9094
    12.6805  13.8724  14.8178  15.9164

          k =-0.3750-0.2887-0.0673 (  4416 PWs)   bands (ev):

   -99.5024 -98.3547 -98.1870 -97.7544 -50.8778 -50.8531 -50.7664 -49.7317
   -49.6338 -49.6220 -49.5694 -49.4640 -49.4362 -49.1601 -49.0517 -48.9431
   -16.0255  -3.2505  -1.2820  -0.2448   0.4893   0.8958   1.0123   1.1308
     1.3343   1.6106   2.0520   2.4408   2.8052   2.9157   3.1076   3.6113
     3.8907   4.1568   4.3415   4.5720   4.8457   5.0649   5.1819   5.3550
     5.6115   6.2344   6.7912   7.5629   9.0002  10.5588  10.9659  11.9096
    12.6804  13.8723  14.8179  15.9170

          k = 0.3125-0.1083-0.0673 (  4460 PWs)   bands (ev):

   -99.5049 -98.3572 -98.1895 -97.7569 -50.8600 -50.8257 -50.7518 -49.6809
   -49.6385 -49.6075 -49.5214 -49.4495 -49.4410 -49.1097 -49.0373 -48.9486
   -16.1886  -3.7874  -0.6738  -0.2043   0.3218   0.8593   1.0972   1.2629
     1.5657   1.7192   2.0534   2.2528   2.7130   2.7969   3.0202   3.2588
     3.3346   3.5435   3.6926   3.9036   4.2078   4.3485   4.5617   4.7754
     5.0745   5.2053   5.3511   6.9659   8.8009   9.7517  10.9730  12.3465
    14.4942  15.0096  15.7886  16.2598

          k =-0.2500-0.2165-0.0673 (  4460 PWs)   bands (ev):

   -99.5049 -98.3572 -98.1895 -97.7569 -50.8600 -50.8259 -50.7516 -49.6809
   -49.6385 -49.6075 -49.5214 -49.4495 -49.4410 -49.1097 -49.0373 -48.9486
   -16.1886  -3.7875  -0.6737  -0.2044   0.3215   0.8579   1.0988   1.2635
     1.5661   1.7192   2.0537   2.2529   2.7130   2.7970   3.0201   3.2575
     3.3340   3.5440   3.6926   3.9036   4.2081   4.3484   4.5617   4.7753
     5.0746   5.2054   5.3510   6.9663   8.8005   9.7520  10.9721  12.3467
    14.4942  15.0098  15.7885  16.2599

          k = 0.1875-0.0361-0.0673 (  4490 PWs)   bands (ev):

   -99.5079 -98.3602 -98.1924 -97.7599 -50.8680 -50.7641 -50.7345 -49.6465
   -49.6202 -49.5903 -49.4621 -49.4469 -49.4324 -49.0497 -49.0202 -48.9552
   -16.3726  -4.4559  -0.9759  -0.5753   0.2614   0.6136   0.9461   1.1573
     1.3725   1.8849   2.1900   2.5029   2.6238   2.7102   2.7934   3.1157
     3.1491   3.3012   3.5318   3.5950   3.7847   3.9873   4.2389   4.4088
     4.5813   4.9386   5.2577   5.9249   8.0828  10.2744  11.2881  11.3688
    13.2822  13.7953  15.0112  15.8230

          k =-0.1250-0.1443-0.0673 (  4490 PWs)   bands (ev):

   -99.5079 -98.3602 -98.1924 -97.7599 -50.8680 -50.7646 -50.7341 -49.6465
   -49.6202 -49.5903 -49.4621 -49.4469 -49.4324 -49.0497 -49.0202 -48.9552
   -16.3726  -4.4558  -0.9760  -0.5752   0.2610   0.6138   0.9438   1.1570
     1.3751   1.8848   2.1903   2.5029   2.6237   2.7102   2.7935   3.1154
     3.1486   3.3011   3.5318   3.5954   3.7847   3.9873   4.2391   4.4090
     4.5813   4.9386   5.2578   5.9253   8.0830  10.2742  11.2865  11.3694
    13.2823  13.7955  15.0112  15.8234

          k = 0.0000-0.0722-0.0673 (  4520 PWs)   bands (ev):

   -99.5096 -98.3618 -98.1941 -97.7615 -50.8726 -50.7297 -50.7240 -49.6512
   -49.5855 -49.5806 -49.4507 -49.4276 -49.4229 -49.0154 -49.0106 -48.9589
   -16.4734  -4.8520  -1.4906  -0.9723  -0.2845   0.5296   1.0718   1.1417
     1.2439   2.1692   2.3608   2.4001   2.7710   2.8655   2.9354   3.0106
     3.1226   3.4288   3.4293   3.4919   3.5803   3.7728   4.3602   4.4003
     4.7950   4.9873   5.1959   5.3335   7.0422  10.6928  11.3619  11.4576
    12.7326  13.2291  14.4851  15.1674

          k = 0.3750 0.0000-0.0673 (  4450 PWs)   bands (ev):

   -99.5040 -98.3563 -98.1885 -97.7560 -50.8574 -50.8361 -50.7673 -49.6912
   -49.6360 -49.6227 -49.5313 -49.4645 -49.4391 -49.1200 -49.0523 -48.9465
   -16.1268  -3.5594  -0.5914  -0.0930   0.2800   0.9925   1.2230   1.4000
     1.6270   1.9351   2.1308   2.1902   2.5752   2.7222   2.7734   3.0879
     3.2304   3.4822   3.6772   3.7627   4.2516   4.5040   4.7273   5.1054
     5.2880   5.6215   6.0759   7.5842   8.7096  10.0150  10.5371  12.9256
    15.0191  15.5192  15.9064  16.1841

          k =-0.3125 0.3969-0.0673 (  4428 PWs)   bands (ev):

   -99.5018 -98.3542 -98.1864 -97.7538 -50.8683 -50.8515 -50.7918 -49.7222
   -49.6473 -49.6315 -49.5608 -49.4887 -49.4349 -49.1508 -49.0766 -48.9418
   -15.9877  -3.0761  -1.0194  -0.0566   0.2206   1.0263   1.3083   1.4272
     1.7287   1.9154   2.1480   2.3501   2.4926   2.8425   3.1120   3.1286
     3.5669   3.8334   4.0157   4.1647   4.4919   4.7593   5.0474   5.4979
     5.5500   7.3464   7.6110   8.2804   9.3595  10.0800  11.5180  12.2813
    13.0648  14.1970  14.9091  15.4190

          k = 0.5000 0.0722-0.0673 (  4428 PWs)   bands (ev):

   -99.5018 -98.3542 -98.1864 -97.7538 -50.8680 -50.8515 -50.7921 -49.7222
   -49.6473 -49.6315 -49.5608 -49.4887 -49.4349 -49.1508 -49.0766 -48.9418
   -15.9877  -3.0754  -1.0195  -0.0566   0.2209   1.0247   1.3080   1.4274
     1.7286   1.9152   2.1478   2.3499   2.4927   2.8425   3.1120   3.1285
     3.5672   3.8331   4.0158   4.1649   4.4921   4.7595   5.0481   5.4977
     5.5501   7.3471   7.6130   8.2799   9.3583  10.0801  11.5178  12.2809
    13.0650  14.1968  14.9082  15.4175

          k =-0.4375 0.4691-0.0673 (  4432 PWs)   bands (ev):

   -99.5013 -98.3537 -98.1859 -97.7533 -50.8750 -50.8502 -50.7982 -49.7291
   -49.6534 -49.6306 -49.5671 -49.4947 -49.4339 -49.1576 -49.0827 -48.9407
   -15.9545  -2.9540  -1.1585  -0.0457   0.1894   0.9364   1.3493   1.3947
     1.6610   2.0008   2.1731   2.2909   2.5077   2.9595   3.0428   3.2524
     3.6235   4.0009   4.2068   4.3784   4.6964   4.8393   5.1390   5.4306
     5.8403   7.0417   8.6091   9.1980   9.6125  10.2740  11.0869  11.5686
    12.8308  13.1204  14.2230  15.5840

          k = 0.6250 0.1443-0.0673 (  4432 PWs)   bands (ev):

   -99.5013 -98.3537 -98.1859 -97.7533 -50.8751 -50.8502 -50.7981 -49.7291
   -49.6534 -49.6306 -49.5671 -49.4947 -49.4339 -49.1576 -49.0827 -48.9407
   -15.9545  -2.9542  -1.1584  -0.0456   0.1893   0.9369   1.3495   1.3945
     1.6610   2.0009   2.1732   2.2910   2.5076   2.9595   3.0429   3.2524
     3.6234   4.0011   4.2067   4.3783   4.6964   4.8391   5.1390   5.4307
     5.8404   7.0401   8.6093   9.1987   9.6125  10.2739  11.0869  11.5686
    12.8306  13.1206  14.2243  15.5835

          k = 0.4375-0.0361-0.0673 (  4450 PWs)   bands (ev):

   -99.5028 -98.3551 -98.1873 -97.7548 -50.8554 -50.8532 -50.7810 -49.7091
   -49.6363 -49.6333 -49.5485 -49.4779 -49.4367 -49.1378 -49.0657 -48.9438
   -16.0486  -3.2884  -0.7992  -0.0706   0.2626   1.0835   1.2722   1.4614
     1.7322   1.8830   2.0311   2.4121   2.5535   2.6872   2.8885   3.2240
     3.3982   3.5963   3.6844   3.9856   4.3646   4.7007   4.7903   5.2820
     5.5023   6.4244   7.0445   8.1568   8.5876  10.0091  10.8775  13.5627
    14.1841  14.8087  15.6159  15.9691

          k =-0.2500-0.3608-0.0673 (  4450 PWs)   bands (ev):

   -99.5028 -98.3551 -98.1873 -97.7548 -50.8558 -50.8532 -50.7805 -49.7091
   -49.6363 -49.6333 -49.5485 -49.4779 -49.4367 -49.1378 -49.0657 -48.9438
   -16.0486  -3.2890  -0.7994  -0.0707   0.2629   1.0844   1.2734   1.4612
     1.7324   1.8831   2.0311   2.4122   2.5536   2.6871   2.8884   3.2240
     3.3983   3.5966   3.6842   3.9850   4.3644   4.7000   4.7899   5.2823
     5.5023   6.4245   7.0450   8.1547   8.5880  10.0087  10.8784  13.5625
    14.1839  14.8088  15.6175  15.9689

          k = 0.3125 0.0361-0.0673 (  4452 PWs)   bands (ev):

   -99.5053 -98.3576 -98.1898 -97.7573 -50.8609 -50.8150 -50.7537 -49.6704
   -49.6393 -49.6093 -49.5112 -49.4513 -49.4417 -49.0994 -49.0390 -48.9494
   -16.2099  -3.8538  -0.5513  -0.0923   0.2282   0.8243   1.0348   1.3561
     1.6615   1.8743   2.0192   2.3380   2.4259   2.7373   2.9169   3.0366
     3.2120   3.3069   3.6057   3.7918   4.1772   4.3748   4.5127   4.7632
     5.0964   5.1493   5.3776   6.9140   8.9075   9.7033  10.8570  12.2286
    14.3481  14.8618  15.8769  16.8565

          k =-0.1250-0.2887-0.0673 (  4452 PWs)   bands (ev):

   -99.5053 -98.3576 -98.1898 -97.7573 -50.8609 -50.8157 -50.7530 -49.6704
   -49.6393 -49.6093 -49.5112 -49.4513 -49.4417 -49.0994 -49.0390 -48.9494
   -16.2099  -3.8538  -0.5516  -0.0934   0.2287   0.8240   1.0344   1.3573
     1.6625   1.8743   2.0192   2.3380   2.4261   2.7373   2.9167   3.0364
     3.2110   3.3064   3.6062   3.7918   4.1772   4.3754   4.5128   4.7632
     5.0965   5.1493   5.3782   6.9154   8.9072   9.7026  10.8552  12.2289
    14.3481  14.8621  15.8768  16.8569

          k = 0.0000-0.2165-0.0673 (  4480 PWs)   bands (ev):

   -99.5074 -98.3597 -98.1919 -97.7594 -50.8667 -50.7763 -50.7357 -49.6452
   -49.6313 -49.5923 -49.4730 -49.4459 -49.4344 -49.0608 -49.0222 -48.9541
   -16.3422  -4.3407  -0.8655  -0.4447   0.2813   0.5470   1.0175   1.2982
     1.3716   1.7737   2.1673   2.5435   2.5776   2.6717   2.8337   3.1133
     3.1620   3.3476   3.6123   3.7079   3.7485   4.0420   4.2374   4.3375
     4.7503   4.8134   5.3079   6.0951   8.2998  10.0895  11.2972  11.4513
    13.4597  13.9747  15.1584  16.0130

          k = 0.6250 0.0000-0.0673 (  4434 PWs)   bands (ev):

   -99.5009 -98.3532 -98.1854 -97.7529 -50.8527 -50.8489 -50.8327 -49.7073
   -49.6871 -49.6284 -49.5471 -49.5275 -49.4329 -49.1361 -49.1160 -48.9397
   -15.9252  -2.8128  -0.8030  -0.3531   0.1054   1.2416   1.3317   1.7890
     2.0405   2.1422   2.2745   2.3572   2.4705   2.7556   3.0570   3.3587
     3.5561   3.7129   3.7638   4.0123   4.2601   4.8185   5.0970   5.2343
     6.3211   7.0064   8.4140   9.7757  10.7047  10.8746  11.1138  12.4718
    12.7282  13.4009  14.1872  14.8720

          k =-0.4375 0.6134-0.0673 (  4444 PWs)   bands (ev):

   -99.5012 -98.3535 -98.1858 -97.7532 -50.8635 -50.8498 -50.8130 -49.7179
   -49.6678 -49.6296 -49.5569 -49.5088 -49.4336 -49.1465 -49.0969 -48.9404
   -15.9472  -2.9087  -0.9321  -0.1065   0.0623   1.1362   1.3500   1.6531
     1.9031   2.1062   2.1984   2.3487   2.4782   2.8819   2.9321   3.2413
     3.5069   3.7833   3.9010   4.0304   4.3720   4.7822   5.1048   5.4237
     5.9195   7.3055   8.4667   8.8435   9.7235  10.9198  11.4451  12.1919
    12.9881  13.4759  14.4684  14.8129

          k = 0.7500 0.0722-0.0673 (  4444 PWs)   bands (ev):

   -99.5012 -98.3535 -98.1858 -97.7532 -50.8642 -50.8498 -50.8123 -49.7179
   -49.6678 -49.6296 -49.5569 -49.5088 -49.4336 -49.1465 -49.0969 -48.9404
   -15.9472  -2.9095  -0.9324  -0.1054   0.0624   1.1367   1.3505   1.6530
     1.9031   2.1059   2.1985   2.3485   2.4782   2.8819   2.9321   3.2415
     3.5069   3.7830   3.9012   4.0306   4.3719   4.7820   5.1047   5.4238
     5.9205   7.3004   8.4684   8.8449   9.7234  10.9202  11.4449  12.1920
    12.9887  13.4763  14.4697  14.8123

          k = 0.4375 0.1083-0.0673 (  4428 PWs)   bands (ev):

   -99.5026 -98.3550 -98.1872 -97.7546 -50.8650 -50.8536 -50.7736 -49.7192
   -49.6335 -49.6290 -49.5580 -49.4708 -49.4365 -49.1478 -49.0586 -48.9436
   -16.0404  -3.2782  -1.0340  -0.1624   0.4540   0.9925   1.0997   1.3196
     1.4689   1.8179   2.0631   2.3158   2.6074   2.8763   3.0996   3.3265
     3.6360   3.8804   4.1476   4.2583   4.4614   4.7117   4.8990   5.2973
     5.5009   6.3479   6.9357   7.8273   8.8116  10.2396  10.9155  12.8348
    13.5299  14.3270  15.3567  16.1843

          k =-0.1250-0.4330-0.0673 (  4428 PWs)   bands (ev):

   -99.5026 -98.3550 -98.1872 -97.7546 -50.8657 -50.8536 -50.7730 -49.7192
   -49.6335 -49.6290 -49.5580 -49.4708 -49.4365 -49.1477 -49.0587 -48.9436
   -16.0404  -3.2786  -1.0348  -0.1616   0.4541   0.9937   1.0992   1.3194
     1.4691   1.8178   2.0634   2.3157   2.6074   2.8763   3.0996   3.3269
     3.6360   3.8802   4.1475   4.2584   4.4611   4.7113   4.8991   5.2977
     5.5010   6.3484   6.9372   7.8268   8.8100  10.2387  10.9164  12.8350
    13.5297  14.3274  15.3573  16.1845

          k = 0.0000-0.3608-0.0673 (  4442 PWs)   bands (ev):

   -99.5043 -98.3566 -98.1888 -97.7563 -50.8584 -50.8416 -50.7523 -49.6957
   -49.6372 -49.6086 -49.5357 -49.4507 -49.4399 -49.1244 -49.0385 -48.9473
   -16.1490  -3.6595  -0.8410  -0.2571   0.4144   0.8485   1.1549   1.2198
     1.4513   1.6204   2.0880   2.2633   2.7297   3.0007   3.0734   3.4306
     3.4408   3.7690   3.9162   4.1571   4.4051   4.5049   4.6298   4.8373
     5.1496   5.3073   5.3527   7.1358   8.6481   9.9226  11.0010  12.6163
    14.7171  14.9391  15.2890  15.9925

          k = 0.8750 0.0000-0.0673 (  4420 PWs)   bands (ev):

   -99.5016 -98.3539 -98.1861 -97.7536 -50.8861 -50.8508 -50.7813 -49.7393
   -49.6374 -49.6322 -49.5761 -49.4790 -49.4345 -49.1676 -49.0668 -48.9412
   -15.9681  -3.0317  -1.3676  -0.1562   0.4339   0.8134   1.0740   1.2864
     1.3428   1.8017   2.1054   2.3533   2.7045   2.9008   3.1156   3.4970
     3.8800   4.1281   4.4607   4.8034   4.9038   5.0008   5.3510   5.5224
     5.6878   6.8509   8.4067   8.9933   9.6185   9.8342  10.5794  11.5536
    12.0501  13.2977  13.4744  15.9548

          k = 0.0000-0.5052-0.0673 (  4396 PWs)   bands (ev):

   -99.5021 -98.3545 -98.1867 -97.7542 -50.8876 -50.8524 -50.7640 -49.7408
   -49.6340 -49.6202 -49.5774 -49.4622 -49.4358 -49.1690 -49.0500 -48.9425
   -16.0064  -3.1970  -1.4400  -0.2768   0.4435   0.8205   1.0122   1.0450
     1.2747   1.5109   2.0344   2.5438   2.9190   2.9420   3.0998   3.6326
     4.1936   4.2785   4.4233   4.5794   5.1448   5.3105   5.4007   5.5655
     5.9590   6.3648   6.8974   7.5423   9.2346  10.7033  10.7291  11.5709
    11.9465  13.1270  14.5745  15.3023

     the Fermi energy is     7.2650 ev

!    total energy              =   -1158.82182909 Ry
     Harris-Foulkes estimate   =   -1158.82182909 Ry
     estimated scf accuracy    <          3.6E-09 Ry

     The total energy is the sum of the following terms:

     one-electron contribution =   -5790.98597551 Ry
     hartree contribution      =    2899.84117966 Ry
     xc contribution           =    -113.31836912 Ry
     ewald contribution        =    1861.34748769 Ry
     one-center paw contrib.   =     -15.70537523 Ry
     smearing contrib. (-TS)   =      -0.00077657 Ry

     convergence has been achieved in   7 iterations

     Forces acting on atoms (Ry/au):


     negative rho (up, down):  1.360E-04 0.000E+00
     atom    1 type  1   force =     0.00000000   -0.00000126   -0.00042834
     atom    2 type  1   force =     0.00000000   -0.00000247    0.00046300
     atom    3 type  1   force =     0.00000000   -0.00001672   -0.00007577
     atom    4 type  1   force =     0.00000000   -0.00002462   -0.00026317
     atom    5 type  2   force =     0.00000000   -0.00002575    0.00003839
     atom    6 type  3   force =     0.00000000    0.00007083    0.00026588

     Total force =     0.000743     Total SCF correction =     0.000728
     SCF correction compared to forces is large: reduce conv_thr to get better values

     bfgs converged in  16 scf cycles and  14 bfgs steps
     (criteria: energy <  1.0E-04, force <  1.0E-03)

     End of BFGS Geometry Optimization

     Final energy   =   -1158.8218290875 Ry
Begin final coordinates

ATOMIC_POSITIONS (alat)
Au      -0.000000000  -0.000002463  -0.073632800
Au       0.500000000   0.288671487   0.798010351
Au       0.000000000   0.577318166   1.666997375
Au       0.000000000   0.000016225   2.529135071
C        0.500000000   0.289381575   3.055717763
O        0.500001000   0.288990010   3.461329239
End final coordinates



     Writing output data file CO_Au_hollow.save

     init_run     :     29.36s CPU     15.15s WALL (       1 calls)
     electrons    :  17261.44s CPU   8274.13s WALL (      16 calls)
     update_pot   :     19.14s CPU     19.24s WALL (      15 calls)
     forces       :    322.23s CPU    120.39s WALL (      16 calls)

     Called by init_run:
     wfcinit      :     27.41s CPU     13.13s WALL (       1 calls)
     potinit      :      0.53s CPU      0.54s WALL (       1 calls)

     Called by electrons:
     c_bands      :  15029.30s CPU   7043.20s WALL (     157 calls)
     sum_band     :   2146.05s CPU   1142.42s WALL (     157 calls)
     v_of_rho     :     28.25s CPU     27.53s WALL (     168 calls)
     newd         :     45.89s CPU     49.38s WALL (     168 calls)
     mix_rho      :      1.96s CPU      1.85s WALL (     157 calls)

     Called by c_bands:
     init_us_2    :    189.78s CPU    114.23s WALL (   17992 calls)
     cegterg      :  14030.32s CPU   6463.34s WALL (    8164 calls)

     Called by *egterg:
     h_psi        :   7692.43s CPU   4325.87s WALL (   30657 calls)
     s_psi        :   1656.21s CPU    516.57s WALL (   30657 calls)
     g_psi        :     42.41s CPU     20.74s WALL (   22441 calls)
     cdiaghg      :    516.69s CPU    251.97s WALL (   29565 calls)

     Called by h_psi:
     add_vuspsi   :   1697.72s CPU    530.73s WALL (   30657 calls)

     General routines
     calbec       :   2495.12s CPU    778.05s WALL (   40433 calls)
     fft          :      8.27s CPU      8.22s WALL (    2835 calls)
     ffts         :      0.94s CPU      0.62s WALL (     325 calls)
     fftw         :   4711.55s CPU   3470.52s WALL ( 2573678 calls)
     interpolate  :      2.99s CPU      2.12s WALL (     325 calls)
     davcio       :      0.03s CPU      0.53s WALL (      52 calls)

     Parallel routines
     fft_scatter  :    395.62s CPU    286.43s WALL ( 2576838 calls)

     PAW routines
     PAW_pot      :     19.47s CPU     18.44s WALL (     183 calls)
     PAW_symme    :      0.01s CPU      0.00s WALL (     340 calls)

     PWSCF        :     4h55m CPU        2h21m WALL


   This run was terminated on:  14: 0:40  18Jun2018            

=------------------------------------------------------------------------------=
   JOB DONE.
=------------------------------------------------------------------------------=
