
     Program PWSCF v.5.1 starts on 18Jun2018 at  4:40:55 

     This program is part of the open-source Quantum ESPRESSO suite
     for quantum simulation of materials; please cite
         "P. Giannozzi et al., J. Phys.:Condens. Matter 21 395502 (2009);
          URL http://www.quantum-espresso.org", 
     in publications or presentations arising from this work. More details at
     http://www.quantum-espresso.org/quote

     Parallel version (MPI), running on     1 processors
     Waiting for input...
     Reading input from standard input
Warning: card &CELL ignored
Warning: card / ignored

     Current dimensions of program PWSCF are:
     Max number of different atomic species (ntypx) = 10
     Max number of k-points (npk) =  40000
     Max angular momentum in pseudopotentials (lmaxx) =  3
               file C.pbe-n-kjpaw_psl.1.0.0.UPF: wavefunction(s)  2S 2P renormalized
               file O.pbe-n-kjpaw_psl.0.1.U: wavefunction(s)  2P renormalized

     Subspace diagonalization in iterative solution of the eigenvalue problem:
     a serial algorithm will be used


     G-vector sticks info
     --------------------
     sticks:   dense  smooth     PW     G-vecs:    dense   smooth      PW
     Sum         649     313    109               100611    35335    6935



     bravais-lattice index     =            4
     lattice parameter (alat)  =       5.4490  a.u.
     unit-cell volume          =    1040.6255 (a.u.)^3
     number of atoms/cell      =            2
     number of atomic types    =            2
     number of electrons       =        10.00
     number of Kohn-Sham states=            9
     kinetic-energy cutoff     =      40.0000  Ry
     charge density cutoff     =     320.0000  Ry
     convergence threshold     =      1.0E-06
     mixing beta               =       0.7000
     number of iterations used =            8  plain     mixing
     Exchange-correlation      =  SLA  PW   PBX  PBC ( 1  4  3  4 0)
     nstep                     =           50


     celldm(1)=   5.449000  celldm(2)=   0.000000  celldm(3)=   7.427000
     celldm(4)=   0.000000  celldm(5)=   0.000000  celldm(6)=   0.000000

     crystal axes: (cart. coord. in units of alat)
               a(1) = (   1.000000   0.000000   0.000000 )  
               a(2) = (  -0.500000   0.866025   0.000000 )  
               a(3) = (   0.000000   0.000000   7.427000 )  

     reciprocal axes: (cart. coord. in units 2 pi/alat)
               b(1) = (  1.000000  0.577350 -0.000000 )  
               b(2) = (  0.000000  1.154701  0.000000 )  
               b(3) = (  0.000000 -0.000000  0.134644 )  


     PseudoPot. # 1 for  C read from file:
     /home/oropebuen/Documents/Job/Absortion/SSSP_efficiency_pseudos/C.pbe-n-kjpaw_psl.1.0.0.UPF
     MD5 check sum: 8e281b34a927efac7e739263a90d7aed
     Pseudo is Projector augmented-wave + core cor, Zval =  4.0
     Generated using "atomic" code by A. Dal Corso  v.5.1
     Shape of augmentation charge: PSQ
     Using radial grid of 1073 points,  4 beta functions with: 
                l(1) =   0
                l(2) =   0
                l(3) =   1
                l(4) =   1
     Q(r) pseudized with 0 coefficients 


     PseudoPot. # 2 for  O read from file:
     /home/oropebuen/Documents/Job/Absortion/SSSP_efficiency_pseudos/O.pbe-n-kjpaw_psl.0.1.U
     MD5 check sum: 3f94a2996a3169367d6eb21d9b593f20
     Pseudo is Projector augmented-wave + core cor, Zval =  6.0
     Generated using "atomic" code by A. Dal Corso  v.5.0.99 svn rev. 10869
     Shape of augmentation charge: BESSEL
     Using radial grid of 1095 points,  4 beta functions with: 
                l(1) =   0
                l(2) =   0
                l(3) =   1
                l(4) =   1
     Q(r) pseudized with 0 coefficients 


     atomic species   valence    mass     pseudopotential
        C              4.00    12.01070      C( 1.00)
        O              6.00    15.99940      O( 1.00)

      2 Sym. Ops. (no inversion) found



   Cartesian axes

     site n.     atom                  positions (alat units)
         1           C   tau(   1) = (   0.5000000   0.2886750   3.0737340  )
         2           O   tau(   2) = (   0.5000010   0.2296750   3.4648430  )

     number of k points=    52  gaussian smearing, width (Ry)=  0.0100
                       cart. coord. in units 2pi/alat
        k(    1) = (   0.0625000   0.1082532  -0.0673219), wk =   0.0416667
        k(    2) = (   0.0625000   0.2525907  -0.0673219), wk =   0.0416667
        k(    3) = (   0.0625000   0.3969283  -0.0673219), wk =   0.0416667
        k(    4) = (   0.0625000   0.5412659  -0.0673219), wk =   0.0416667
        k(    5) = (   0.0625000  -0.4690971  -0.0673219), wk =   0.0416667
        k(    6) = (   0.0625000  -0.3247595  -0.0673219), wk =   0.0416667
        k(    7) = (   0.0625000  -0.1804220  -0.0673219), wk =   0.0416667
        k(    8) = (   0.0625000  -0.0360844  -0.0673219), wk =   0.0416667
        k(    9) = (   0.1875000   0.3247595  -0.0673219), wk =   0.0416667
        k(   10) = (   0.1875000   0.4690971  -0.0673219), wk =   0.0416667
        k(   11) = (   0.1875000   0.6134347  -0.0673219), wk =   0.0416667
        k(   12) = (   0.1875000  -0.3969283  -0.0673219), wk =   0.0416667
        k(   13) = (   0.1875000  -0.2525907  -0.0673219), wk =   0.0416667
        k(   14) = (   0.1875000  -0.1082532  -0.0673219), wk =   0.0416667
        k(   15) = (   0.3125000   0.5412659  -0.0673219), wk =   0.0416667
        k(   16) = (   0.3125000   0.6856034  -0.0673219), wk =   0.0416667
        k(   17) = (   0.3125000  -0.3247595  -0.0673219), wk =   0.0416667
        k(   18) = (   0.3125000  -0.1804220  -0.0673219), wk =   0.0416667
        k(   19) = (   0.4375000   0.7577722  -0.0673219), wk =   0.0416667
        k(   20) = (   0.4375000  -0.2525907  -0.0673219), wk =   0.0416667
        k(   21) = (   0.1250000   0.0000000  -0.0673219), wk =   0.0208333
        k(   22) = (  -0.1875000   0.1804220  -0.0673219), wk =   0.0416667
        k(   23) = (   0.2500000   0.0721688  -0.0673219), wk =   0.0416667
        k(   24) = (  -0.3125000   0.2525907  -0.0673219), wk =   0.0416667
        k(   25) = (   0.3750000   0.1443376  -0.0673219), wk =   0.0416667
        k(   26) = (  -0.4375000   0.3247595  -0.0673219), wk =   0.0416667
        k(   27) = (   0.5000000   0.2165064  -0.0673219), wk =   0.0416667
        k(   28) = (   0.4375000  -0.1804220  -0.0673219), wk =   0.0416667
        k(   29) = (  -0.3750000  -0.2886751  -0.0673219), wk =   0.0416667
        k(   30) = (   0.3125000  -0.1082532  -0.0673219), wk =   0.0416667
        k(   31) = (  -0.2500000  -0.2165064  -0.0673219), wk =   0.0416667
        k(   32) = (   0.1875000  -0.0360844  -0.0673219), wk =   0.0416667
        k(   33) = (  -0.1250000  -0.1443376  -0.0673219), wk =   0.0416667
        k(   34) = (   0.0000000  -0.0721688  -0.0673219), wk =   0.0208333
        k(   35) = (   0.3750000   0.0000000  -0.0673219), wk =   0.0208333
        k(   36) = (  -0.3125000   0.3969283  -0.0673219), wk =   0.0416667
        k(   37) = (   0.5000000   0.0721688  -0.0673219), wk =   0.0416667
        k(   38) = (  -0.4375000   0.4690971  -0.0673219), wk =   0.0416667
        k(   39) = (   0.6250000   0.1443376  -0.0673219), wk =   0.0416667
        k(   40) = (   0.4375000  -0.0360844  -0.0673219), wk =   0.0416667
        k(   41) = (  -0.2500000  -0.3608439  -0.0673219), wk =   0.0416667
        k(   42) = (   0.3125000   0.0360844  -0.0673219), wk =   0.0416667
        k(   43) = (  -0.1250000  -0.2886751  -0.0673219), wk =   0.0416667
        k(   44) = (   0.0000000  -0.2165064  -0.0673219), wk =   0.0208333
        k(   45) = (   0.6250000   0.0000000  -0.0673219), wk =   0.0208333
        k(   46) = (  -0.4375000   0.6134347  -0.0673219), wk =   0.0416667
        k(   47) = (   0.7500000   0.0721688  -0.0673219), wk =   0.0416667
        k(   48) = (   0.4375000   0.1082532  -0.0673219), wk =   0.0416667
        k(   49) = (  -0.1250000  -0.4330127  -0.0673219), wk =   0.0416667
        k(   50) = (   0.0000000  -0.3608439  -0.0673219), wk =   0.0208333
        k(   51) = (   0.8750000   0.0000000  -0.0673219), wk =   0.0208333
        k(   52) = (   0.0000000  -0.5051815  -0.0673219), wk =   0.0208333

     Dense  grid:   100611 G-vectors     FFT dimensions: (  32,  32, 240)

     Smooth grid:    35335 G-vectors     FFT dimensions: (  24,  24, 180)

     Largest allocated arrays     est. size (Mb)     dimensions
        Kohn-Sham Wavefunctions         0.62 Mb     (    4520,    9)
        NL pseudopotentials             1.10 Mb     (    4520,   16)
        Each V/rho on FFT grid          3.75 Mb     (  245760)
        Each G-vector array             0.77 Mb     (  100611)
        G-vector shells                 0.04 Mb     (    4911)
     Largest temporary arrays     est. size (Mb)     dimensions
        Auxiliary wavefunctions         2.48 Mb     (    4520,   36)
        Each subspace H/S matrix        0.02 Mb     (      36,   36)
        Each <psi_i|beta_j> matrix      0.00 Mb     (      16,    9)
        Arrays for rho mixing          30.00 Mb     (  245760,    8)

     Check: negative/imaginary core charge=   -0.000003    0.000000

     Initial potential from superposition of free atoms
     Check: negative starting charge=   -0.000325

     starting charge    9.99996, renormalised to   10.00000

     negative rho (up, down):  3.248E-04 0.000E+00
     Starting wfc are    8 randomized atomic wfcs +    1 random wfc
     Checking if some PAW data can be deallocated... 

     total cpu time spent up to now is       15.7 secs

     per-process dynamical memory:    82.0 Mb

     Self-consistent Calculation

     iteration #  1     ecut=    40.00 Ry     beta=0.70
     Davidson diagonalization with overlap
     ethr =  1.00E-02,  avg # of iterations =  5.9

     negative rho (up, down):  4.634E-04 0.000E+00

     total cpu time spent up to now is       60.8 secs

     total energy              =     -59.92461869 Ry
     Harris-Foulkes estimate   =     -60.04572199 Ry
     estimated scf accuracy    <       0.18218270 Ry

     iteration #  2     ecut=    40.00 Ry     beta=0.70
     Davidson diagonalization with overlap
     ethr =  1.82E-03,  avg # of iterations =  2.1

     negative rho (up, down):  4.892E-04 0.000E+00

     total cpu time spent up to now is       93.0 secs

     total energy              =     -59.86324978 Ry
     Harris-Foulkes estimate   =     -60.06951541 Ry
     estimated scf accuracy    <       0.53226860 Ry

     iteration #  3     ecut=    40.00 Ry     beta=0.70
     Davidson diagonalization with overlap
     ethr =  1.82E-03,  avg # of iterations =  2.1

     negative rho (up, down):  4.705E-04 0.000E+00

     total cpu time spent up to now is      122.5 secs

     total energy              =     -59.97778697 Ry
     Harris-Foulkes estimate   =     -59.99627625 Ry
     estimated scf accuracy    <       0.05893259 Ry

     iteration #  4     ecut=    40.00 Ry     beta=0.70
     Davidson diagonalization with overlap
     ethr =  5.89E-04,  avg # of iterations =  1.2

     negative rho (up, down):  4.863E-04 0.000E+00

     total cpu time spent up to now is      153.3 secs

     total energy              =     -59.98454880 Ry
     Harris-Foulkes estimate   =     -59.98492284 Ry
     estimated scf accuracy    <       0.00114934 Ry

     iteration #  5     ecut=    40.00 Ry     beta=0.70
     Davidson diagonalization with overlap
     ethr =  1.15E-05,  avg # of iterations =  7.2

     negative rho (up, down):  4.843E-04 0.000E+00

     total cpu time spent up to now is      207.2 secs

     total energy              =     -59.98489240 Ry
     Harris-Foulkes estimate   =     -59.98490739 Ry
     estimated scf accuracy    <       0.00005555 Ry

     iteration #  6     ecut=    40.00 Ry     beta=0.70
     Davidson diagonalization with overlap
     ethr =  5.55E-07,  avg # of iterations =  1.7

     negative rho (up, down):  4.838E-04 0.000E+00

     total cpu time spent up to now is      238.5 secs

     total energy              =     -59.98489717 Ry
     Harris-Foulkes estimate   =     -59.98489792 Ry
     estimated scf accuracy    <       0.00000249 Ry

     iteration #  7     ecut=    40.00 Ry     beta=0.70
     Davidson diagonalization with overlap
     ethr =  2.49E-08,  avg # of iterations =  2.3

     negative rho (up, down):  4.837E-04 0.000E+00

     total cpu time spent up to now is      272.0 secs

     End of self-consistent calculation

          k = 0.0625 0.1083-0.0673 (  4518 PWs)   bands (ev):

   -28.8395 -13.8868 -10.5280  -9.9530  -9.3043   0.0425   0.5569   1.0114
     1.4011

          k = 0.0625 0.2526-0.0673 (  4466 PWs)   bands (ev):

   -28.7006 -13.6502 -11.3310 -10.1432  -8.7631  -0.9529   0.3105   1.9370
     2.2950

          k = 0.0625 0.3969-0.0673 (  4438 PWs)   bands (ev):

   -28.5303 -13.3751 -12.0500 -10.3632  -8.1633  -2.2385   0.0018   3.5742
     3.9184

          k = 0.0625 0.5413-0.0673 (  4394 PWs)   bands (ev):

   -28.4304 -13.2474 -12.3791 -10.4846  -7.7387  -3.0620  -0.1634   5.7705
     6.1673

          k = 0.0625-0.4691-0.0673 (  4416 PWs)   bands (ev):

   -28.4658 -13.2865 -12.2724 -10.4424  -7.9003  -2.7602  -0.1065   4.6296
     4.9873

          k = 0.0625-0.3248-0.0673 (  4460 PWs)   bands (ev):

   -28.6131 -13.5047 -11.7243 -10.2588  -8.4638  -1.6030   0.1476   2.6709
     3.0180

          k = 0.0625-0.1804-0.0673 (  4490 PWs)   bands (ev):

   -28.7799 -13.7848 -10.9159 -10.0349  -9.0454  -0.3791   0.4599   1.3809
     1.7548

          k = 0.0625-0.0361-0.0673 (  4520 PWs)   bands (ev):

   -28.8714 -13.9414 -10.2398  -9.9159  -9.5058   0.2637   0.5806   0.8365
     1.2292

          k = 0.1875 0.3248-0.0673 (  4450 PWs)   bands (ev):

   -28.5577 -13.4050 -11.8296 -10.5103  -8.2369  -1.7707  -0.3782   3.2183
     3.5622

          k = 0.1875 0.4691-0.0673 (  4428 PWs)   bands (ev):

   -28.4322 -13.2149 -12.1223 -10.8932  -7.7065  -2.5571  -0.9209   5.1596
     5.5279

          k = 0.1875 0.6134-0.0673 (  4432 PWs)   bands (ev):

   -28.4023 -13.1754 -12.1741 -10.9897  -7.5587  -2.7730  -1.0422   6.2874
     6.7259

          k = 0.1875-0.3969-0.0673 (  4450 PWs)   bands (ev):

   -28.4871 -13.2944 -12.0092 -10.7216  -7.9523  -2.1957  -0.6883   4.1144
     4.4606

          k = 0.1875-0.2526-0.0673 (  4452 PWs)   bands (ev):

   -28.6329 -13.5291 -11.5937 -10.3023  -8.5174  -1.3357  -0.0613   2.4907
     2.8406

          k = 0.1875-0.1083-0.0673 (  4480 PWs)   bands (ev):

   -28.7528 -13.7329 -11.0740 -10.0567  -8.9466  -0.5445   0.2642   1.5725
     1.9410

          k = 0.3125 0.5413-0.0673 (  4434 PWs)   bands (ev):

   -28.3767 -13.0996 -11.8546 -11.5414  -7.4010  -2.3403  -1.9401   7.1678
     7.7682

          k = 0.3125 0.6856-0.0673 (  4444 PWs)   bands (ev):

   -28.3966 -13.1323 -12.0393 -11.2261  -7.5104  -2.5371  -1.4798   6.1591
     6.5863

          k = 0.3125-0.3248-0.0673 (  4428 PWs)   bands (ev):

   -28.4807 -13.2660 -12.1477 -10.5781  -7.9336  -2.4802  -0.4868   4.2886
     4.6405

          k = 0.3125-0.1804-0.0673 (  4442 PWs)   bands (ev):

   -28.5788 -13.4257 -11.9066 -10.2473  -8.3440  -1.9506   0.0203   3.0362
     3.3848

          k = 0.4375 0.7578-0.0673 (  4420 PWs)   bands (ev):

   -28.4162 -13.1510 -12.3591 -10.6928  -7.6271  -3.0479  -0.6324   6.4143
     6.6329

          k = 0.4375-0.2526-0.0673 (  4396 PWs)   bands (ev):

   -28.4508 -13.2080 -12.4101 -10.3770  -7.8240  -3.0338  -0.1551   5.1380
     5.5212

          k = 0.1250 0.0000-0.0673 (  4518 PWs)   bands (ev):

   -28.8398 -13.8853 -10.5183  -9.9629  -9.3010   0.2393   0.2835   1.0213
     1.4066

          k =-0.1875 0.1804-0.0673 (  4466 PWs)   bands (ev):

   -28.7012 -13.6446 -11.3277 -10.1406  -8.7633  -0.9178   0.1729   1.9403
     2.2997

          k = 0.2500 0.0722-0.0673 (  4466 PWs)   bands (ev):

   -28.7016 -13.6407 -11.3210 -10.1468  -8.7604  -0.9243   0.1311   1.9418
     2.3022

          k =-0.3125 0.2526-0.0673 (  4438 PWs)   bands (ev):

   -28.5318 -13.3484 -12.0629 -10.3528  -8.1609  -2.2574  -0.1383   3.5763
     3.9240

          k = 0.3750 0.1443-0.0673 (  4438 PWs)   bands (ev):

   -28.5322 -13.3415 -12.0631 -10.3563  -8.1578  -2.2795  -0.1341   3.5761
     3.9250

          k =-0.4375 0.3248-0.0673 (  4394 PWs)   bands (ev):

   -28.4326 -13.1802 -12.4295 -10.4697  -7.7285  -3.1176  -0.2953   5.7840
     6.1916

          k = 0.5000 0.2165-0.0673 (  4394 PWs)   bands (ev):

   -28.4327 -13.1771 -12.4310 -10.4703  -7.7275  -3.1231  -0.2931   5.7817
     6.1930

          k = 0.4375-0.1804-0.0673 (  4416 PWs)   bands (ev):

   -28.4680 -13.2323 -12.3070 -10.4310  -7.8914  -2.8161  -0.2365   4.6319
     4.9962

          k =-0.3750-0.2887-0.0673 (  4416 PWs)   bands (ev):

   -28.4677 -13.2390 -12.3045 -10.4290  -7.8940  -2.8007  -0.2422   4.6329
     4.9952

          k = 0.3125-0.1083-0.0673 (  4460 PWs)   bands (ev):

   -28.6145 -13.4861 -11.7222 -10.2571  -8.4604  -1.6180  -0.0031   2.6737
     3.0244

          k =-0.2500-0.2165-0.0673 (  4460 PWs)   bands (ev):

   -28.6141 -13.4916 -11.7257 -10.2522  -8.4635  -1.5953   0.0049   2.6734
     3.0230

          k = 0.1875-0.0361-0.0673 (  4490 PWs)   bands (ev):

   -28.7805 -13.7804 -10.9039 -10.0433  -9.0423  -0.2796   0.2352   1.3889
     1.7626

          k =-0.1250-0.1443-0.0673 (  4490 PWs)   bands (ev):

   -28.7801 -13.7831 -10.9126 -10.0355  -9.0452  -0.3330   0.3565   1.3847
     1.7584

          k = 0.0000-0.0722-0.0673 (  4520 PWs)   bands (ev):

   -28.8713 -13.9419 -10.2467  -9.9072  -9.5087   0.2023   0.6891   0.8217
     1.2261

          k = 0.3750 0.0000-0.0673 (  4450 PWs)   bands (ev):

   -28.5590 -13.3856 -11.8276 -10.5175  -8.2300  -1.8296  -0.4065   3.2187
     3.5657

          k =-0.3125 0.3969-0.0673 (  4428 PWs)   bands (ev):

   -28.4331 -13.1907 -12.1411 -10.8864  -7.7018  -2.5817  -0.9641   5.1605
     5.5308

          k = 0.5000 0.0722-0.0673 (  4428 PWs)   bands (ev):

   -28.4339 -13.1701 -12.1506 -10.8906  -7.6948  -2.6352  -0.9425   5.1586
     5.5339

          k =-0.4375 0.4691-0.0673 (  4432 PWs)   bands (ev):

   -28.4038 -13.1259 -12.2125 -10.9822  -7.5467  -2.8415  -1.0715   6.2869
     6.7374

          k = 0.6250 0.1443-0.0673 (  4432 PWs)   bands (ev):

   -28.4036 -13.1345 -12.2075 -10.9808  -7.5495  -2.8218  -1.0808   6.2920
     6.7329

          k = 0.4375-0.0361-0.0673 (  4450 PWs)   bands (ev):

   -28.4887 -13.2623 -12.0207 -10.7248  -7.9429  -2.2706  -0.7087   4.1140
     4.4646

          k =-0.2500-0.3608-0.0673 (  4450 PWs)   bands (ev):

   -28.4876 -13.2852 -12.0151 -10.7182  -7.9509  -2.2011  -0.7222   4.1147
     4.4619

          k = 0.3125 0.0361-0.0673 (  4452 PWs)   bands (ev):

   -28.6337 -13.5189 -11.5858 -10.3108  -8.5125  -1.3689  -0.1023   2.4919
     2.8439

          k =-0.1250-0.2887-0.0673 (  4452 PWs)   bands (ev):

   -28.6325 -13.5333 -11.5936 -10.3048  -8.5173  -1.3466  -0.0006   2.4897
     2.8387

          k = 0.0000-0.2165-0.0673 (  4480 PWs)   bands (ev):

   -28.7521 -13.7383 -11.0822 -10.0550  -8.9476  -0.6143   0.4708   1.5655
     1.9333

          k = 0.6250 0.0000-0.0673 (  4434 PWs)   bands (ev):

   -28.3771 -13.0865 -11.8718 -11.5332  -7.3970  -2.4063  -1.8937   7.1590
     7.7574

          k =-0.4375 0.6134-0.0673 (  4444 PWs)   bands (ev):

   -28.3972 -13.1116 -12.0532 -11.2267  -7.5037  -2.5980  -1.4487   6.1550
     6.5921

          k = 0.7500 0.0722-0.0673 (  4444 PWs)   bands (ev):

   -28.3961 -13.1464 -12.0261 -11.2309  -7.5138  -2.5146  -1.4734   6.1582
     6.5846

          k = 0.4375 0.1083-0.0673 (  4428 PWs)   bands (ev):

   -28.4813 -13.2514 -12.1519 -10.5831  -7.9280  -2.5204  -0.4740   4.2876
     4.6424

          k =-0.1250-0.4330-0.0673 (  4428 PWs)   bands (ev):

   -28.4794 -13.2941 -12.1296 -10.5874  -7.9375  -2.4577  -0.3943   4.2873
     4.6364

          k = 0.0000-0.3608-0.0673 (  4442 PWs)   bands (ev):

   -28.5772 -13.4486 -11.9010 -10.2557  -8.3460  -1.9349   0.1849   3.0334
     3.3782

          k = 0.8750 0.0000-0.0673 (  4420 PWs)   bands (ev):

   -28.4142 -13.2129 -12.3118 -10.7042  -7.6390  -2.9880  -0.5476   6.3986
     6.6114

          k = 0.0000-0.5052-0.0673 (  4396 PWs)   bands (ev):

   -28.4485 -13.2719 -12.3647 -10.3923  -7.8328  -2.9797  -0.0040   5.1314
     5.5076

     the Fermi energy is    -5.9036 ev

!    total energy              =     -59.98489751 Ry
     Harris-Foulkes estimate   =     -59.98489792 Ry
     estimated scf accuracy    <       0.00000045 Ry

     total all-electron energy =      -226.595888 Ry

     The total energy is the sum of the following terms:

     one-electron contribution =    -276.54242847 Ry
     hartree contribution      =     139.84794272 Ry
     xc contribution           =     -11.73514407 Ry
     ewald contribution        =     104.16859575 Ry
     one-center paw contrib.   =     -15.72386343 Ry
     smearing contrib. (-TS)   =      -0.00000000 Ry

     convergence has been achieved in   7 iterations

     Forces acting on atoms (Ry/au):


     negative rho (up, down):  4.837E-04 0.000E+00
     atom    1 type  1   force =     0.00000000   -0.00443915    0.00932525
     atom    2 type  2   force =     0.00000000    0.00443915   -0.00932525

     Total force =     0.014606     Total SCF correction =     0.002354
     SCF correction compared to forces is large: reduce conv_thr to get better values

     BFGS Geometry Optimization

     number of scf cycles    =   1
     number of bfgs steps    =   0

     energy   new            =     -59.9848975127 Ry

     new trust radius        =       0.0103279413 bohr
     new conv_thr            =       0.0000010000 Ry


ATOMIC_POSITIONS (alat)
C        0.500000000   0.287860328   3.075445370
O        0.500001000   0.230489672   3.463131630



     Writing output data file CO_hollow.save
     Check: negative starting charge=   -0.000325
     NEW-OLD atomic charge density approx. for the potential

     Check: negative/imaginary core charge=   -0.000003    0.000000
     Check: negative starting charge=   -0.000325

     negative rho (up, down):  4.847E-04 0.000E+00

     total cpu time spent up to now is      284.7 secs

     per-process dynamical memory:    79.8 Mb

     Self-consistent Calculation

     iteration #  1     ecut=    40.00 Ry     beta=0.70
     Davidson diagonalization with overlap
     ethr =  1.00E-06,  avg # of iterations =  3.2

     negative rho (up, down):  4.852E-04 0.000E+00

     total cpu time spent up to now is      331.5 secs

     total energy              =     -59.98451338 Ry
     Harris-Foulkes estimate   =     -59.98643831 Ry
     estimated scf accuracy    <       0.00029552 Ry

     iteration #  2     ecut=    40.00 Ry     beta=0.70
     Davidson diagonalization with overlap
     ethr =  2.96E-06,  avg # of iterations =  6.1

     negative rho (up, down):  4.885E-04 0.000E+00

     total cpu time spent up to now is      379.0 secs

     total energy              =     -59.98444931 Ry
     Harris-Foulkes estimate   =     -59.98481238 Ry
     estimated scf accuracy    <       0.00094771 Ry

     iteration #  3     ecut=    40.00 Ry     beta=0.70
     Davidson diagonalization with overlap
     ethr =  2.96E-06,  avg # of iterations =  5.6

     negative rho (up, down):  4.855E-04 0.000E+00

     total cpu time spent up to now is      420.3 secs

     total energy              =     -59.98463246 Ry
     Harris-Foulkes estimate   =     -59.98465075 Ry
     estimated scf accuracy    <       0.00005074 Ry

     iteration #  4     ecut=    40.00 Ry     beta=0.70
     Davidson diagonalization with overlap
     ethr =  5.07E-07,  avg # of iterations =  1.0

     negative rho (up, down):  4.855E-04 0.000E+00

     total cpu time spent up to now is      448.4 secs

     End of self-consistent calculation

          k = 0.0625 0.1083-0.0673 (  4518 PWs)   bands (ev):

   -29.0017 -13.8835 -10.6138 -10.0693  -9.3299   0.1497   0.6679   0.9951
     1.4144

          k = 0.0625 0.2526-0.0673 (  4466 PWs)   bands (ev):

   -28.8650 -13.6509 -11.4250 -10.2580  -8.7640  -0.8515   0.4224   1.9166
     2.3112

          k = 0.0625 0.3969-0.0673 (  4438 PWs)   bands (ev):

   -28.6975 -13.3815 -12.1449 -10.4761  -8.1449  -2.1453   0.1118   3.5487
     3.9405

          k = 0.0625 0.5413-0.0673 (  4394 PWs)   bands (ev):

   -28.5993 -13.2601 -12.4705 -10.5963  -7.7102  -2.9736  -0.0543   5.7415
     6.1969

          k = 0.0625-0.4691-0.0673 (  4416 PWs)   bands (ev):

   -28.6341 -13.2963 -12.3658 -10.5545  -7.8753  -2.6701   0.0029   4.6012
     5.0139

          k = 0.0625-0.3248-0.0673 (  4460 PWs)   bands (ev):

   -28.7789 -13.5081 -11.8195 -10.3725  -8.4541  -1.5058   0.2584   2.6481
     3.0366

          k = 0.0625-0.1804-0.0673 (  4490 PWs)   bands (ev):

   -28.9430 -13.7832 -11.0068 -10.1506  -9.0584  -0.2738   0.5724   1.3624
     1.7693

          k = 0.0625-0.0361-0.0673 (  4520 PWs)   bands (ev):

   -29.0331 -13.9373 -10.3205 -10.0318  -9.5412   0.3703   0.6778   0.8327
     1.2417

          k = 0.1875 0.3248-0.0673 (  4450 PWs)   bands (ev):

   -28.7244 -13.4106 -11.9251 -10.6218  -8.2219  -1.6747  -0.2698   3.1937
     3.5825

          k = 0.1875 0.4691-0.0673 (  4428 PWs)   bands (ev):

   -28.6010 -13.2255 -12.2175 -11.0010  -7.6791  -2.4657  -0.8169   5.1289
     5.5559

          k = 0.1875 0.6134-0.0673 (  4432 PWs)   bands (ev):

   -28.5716 -13.1876 -12.2690 -11.0964  -7.5283  -2.6829  -0.9391   6.2538
     6.7568

          k = 0.1875-0.3969-0.0673 (  4450 PWs)   bands (ev):

   -28.6550 -13.3025 -12.1047 -10.8311  -7.9303  -2.1021  -0.5825   4.0869
     4.4843

          k = 0.1875-0.2526-0.0673 (  4452 PWs)   bands (ev):

   -28.7983 -13.5322 -11.6888 -10.4157  -8.5103  -1.2372   0.0500   2.4683
     2.8583

          k = 0.1875-0.1083-0.0673 (  4480 PWs)   bands (ev):

   -28.9163 -13.7324 -11.1671 -10.1718  -8.9549  -0.4417   0.3780   1.5529
     1.9557

          k = 0.3125 0.5413-0.0673 (  4434 PWs)   bands (ev):

   -28.5464 -13.1119 -11.9534 -11.6434  -7.3685  -2.2465  -1.8425   7.1288
     7.7897

          k = 0.3125 0.6856-0.0673 (  4444 PWs)   bands (ev):

   -28.5659 -13.1442 -12.1361 -11.3309  -7.4798  -2.4443  -1.3791   6.1247
     6.6176

          k = 0.3125-0.3248-0.0673 (  4428 PWs)   bands (ev):

   -28.6486 -13.2749 -12.2428 -10.6890  -7.9108  -2.3873  -0.3778   4.2606
     4.6647

          k = 0.3125-0.1804-0.0673 (  4442 PWs)   bands (ev):

   -28.7450 -13.4310 -12.0020 -10.3615  -8.3303  -1.8548   0.1340   3.0119
     3.4041

          k = 0.4375 0.7578-0.0673 (  4420 PWs)   bands (ev):

   -28.5852 -13.1633 -12.4531 -10.8027  -7.5983  -2.9568  -0.5245   6.3822
     6.6174

          k = 0.4375-0.2526-0.0673 (  4396 PWs)   bands (ev):

   -28.6192 -13.2191 -12.5034 -10.4906  -7.7976  -2.9429  -0.0422   5.1082
     5.5488

          k = 0.1250 0.0000-0.0673 (  4518 PWs)   bands (ev):

   -29.0019 -13.8821 -10.6046 -10.0781  -9.3273   0.3450   0.3932   1.0057
     1.4197

          k =-0.1875 0.1804-0.0673 (  4466 PWs)   bands (ev):

   -28.8655 -13.6456 -11.4221 -10.2553  -8.7642  -0.8170   0.2863   1.9196
     2.3156

          k = 0.2500 0.0722-0.0673 (  4466 PWs)   bands (ev):

   -28.8659 -13.6418 -11.4158 -10.2611  -8.7616  -0.8232   0.2447   1.9210
     2.3179

          k =-0.3125 0.2526-0.0673 (  4438 PWs)   bands (ev):

   -28.6989 -13.3554 -12.1580 -10.4660  -8.1426  -2.1634  -0.0259   3.5505
     3.9454

          k = 0.3750 0.1443-0.0673 (  4438 PWs)   bands (ev):

   -28.6992 -13.3487 -12.1584 -10.4693  -8.1396  -2.1849  -0.0217   3.5502
     3.9462

          k =-0.4375 0.3248-0.0673 (  4394 PWs)   bands (ev):

   -28.6013 -13.1922 -12.5224 -10.5821  -7.7007  -3.0271  -0.1839   5.7533
     6.2200

          k = 0.5000 0.2165-0.0673 (  4394 PWs)   bands (ev):

   -28.6014 -13.1891 -12.5241 -10.5827  -7.6997  -3.0325  -0.1816   5.7510
     6.2213

          k = 0.4375-0.1804-0.0673 (  4416 PWs)   bands (ev):

   -28.6360 -13.2423 -12.4013 -10.5436  -7.8670  -2.7239  -0.1248   4.6031
     5.0215

          k =-0.3750-0.2887-0.0673 (  4416 PWs)   bands (ev):

   -28.6358 -13.2489 -12.3986 -10.5417  -7.8694  -2.7090  -0.1304   4.6040
     5.0207

          k = 0.3125-0.1083-0.0673 (  4460 PWs)   bands (ev):

   -28.7802 -13.4902 -11.8179 -10.3707  -8.4510  -1.5202   0.1100   2.6505
     3.0424

          k =-0.2500-0.2165-0.0673 (  4460 PWs)   bands (ev):

   -28.7798 -13.4955 -11.8212 -10.3661  -8.4539  -1.4981   0.1179   2.6502
     3.0412

          k = 0.1875-0.0361-0.0673 (  4490 PWs)   bands (ev):

   -28.9435 -13.7790 -10.9956 -10.1581  -9.0559  -0.1756   0.3484   1.3702
     1.7768

          k =-0.1250-0.1443-0.0673 (  4490 PWs)   bands (ev):

   -28.9432 -13.7815 -11.0039 -10.1510  -9.0583  -0.2284   0.4693   1.3661
     1.7728

          k = 0.0000-0.0722-0.0673 (  4520 PWs)   bands (ev):

   -29.0331 -13.9377 -10.3273 -10.0242  -9.5432   0.3085   0.8029   0.8037
     1.2386

          k = 0.3750 0.0000-0.0673 (  4450 PWs)   bands (ev):

   -28.7255 -13.3917 -11.9237 -10.6286  -8.2155  -1.7319  -0.2977   3.1940
     3.5855

          k =-0.3125 0.3969-0.0673 (  4428 PWs)   bands (ev):

   -28.6018 -13.2014 -12.2365 -10.9944  -7.6747  -2.4893  -0.8593   5.1297
     5.5583

          k = 0.5000 0.0722-0.0673 (  4428 PWs)   bands (ev):

   -28.6025 -13.1809 -12.2465 -10.9983  -7.6680  -2.5413  -0.8382   5.1278
     5.5608

          k =-0.4375 0.4691-0.0673 (  4432 PWs)   bands (ev):

   -28.5730 -13.1379 -12.3082 -11.0891  -7.5169  -2.7490  -0.9679   6.2527
     6.7666

          k = 0.6250 0.1443-0.0673 (  4432 PWs)   bands (ev):

   -28.5727 -13.1466 -12.3030 -11.0878  -7.5197  -2.7298  -0.9770   6.2578
     6.7627

          k = 0.4375-0.0361-0.0673 (  4450 PWs)   bands (ev):

   -28.6564 -13.2710 -12.1168 -10.8340  -7.9214  -2.1747  -0.6026   4.0865
     4.4877

          k =-0.2500-0.3608-0.0673 (  4450 PWs)   bands (ev):

   -28.6554 -13.2935 -12.1107 -10.8278  -7.9290  -2.1073  -0.6157   4.0872
     4.4854

          k = 0.3125 0.0361-0.0673 (  4452 PWs)   bands (ev):

   -28.7991 -13.5224 -11.6815 -10.4236  -8.5058  -1.2695   0.0094   2.4693
     2.8612

          k =-0.1250-0.2887-0.0673 (  4452 PWs)   bands (ev):

   -28.7980 -13.5362 -11.6887 -10.4181  -8.5103  -1.2479   0.1097   2.4675
     2.8566

          k = 0.0000-0.2165-0.0673 (  4480 PWs)   bands (ev):

   -28.9157 -13.7375 -11.1746 -10.1706  -8.9557  -0.5105   0.5834   1.5464
     1.9483

          k = 0.6250 0.0000-0.0673 (  4434 PWs)   bands (ev):

   -28.5467 -13.0988 -11.9708 -11.6351  -7.3647  -2.3105  -1.7974   7.1195
     7.7723

          k =-0.4375 0.6134-0.0673 (  4444 PWs)   bands (ev):

   -28.5665 -13.1235 -12.1504 -11.3313  -7.4735  -2.5034  -1.3488   6.1206
     6.6224

          k = 0.7500 0.0722-0.0673 (  4444 PWs)   bands (ev):

   -28.5655 -13.1582 -12.1227 -11.3356  -7.4830  -2.4227  -1.3727   6.1239
     6.6162

          k = 0.4375 0.1083-0.0673 (  4428 PWs)   bands (ev):

   -28.6492 -13.2605 -12.2472 -10.6938  -7.9054  -2.4264  -0.3652   4.2597
     4.6661

          k =-0.1250-0.4330-0.0673 (  4428 PWs)   bands (ev):

   -28.6474 -13.3027 -12.2244 -10.6980  -7.9144  -2.3658  -0.2870   4.2595
     4.6611

          k = 0.0000-0.3608-0.0673 (  4442 PWs)   bands (ev):

   -28.7436 -13.4532 -11.9961 -10.3696  -8.3322  -1.8398   0.2961   3.0095
     3.3983

          k = 0.8750 0.0000-0.0673 (  4420 PWs)   bands (ev):

   -28.5834 -13.2257 -12.4044 -10.8136  -7.6094  -2.8991  -0.4413   6.3707
     6.5950

          k = 0.0000-0.5052-0.0673 (  4396 PWs)   bands (ev):

   -28.6171 -13.2833 -12.4566 -10.5051  -7.8059  -2.8909   0.1063   5.1024
     5.5368

     the Fermi energy is    -5.9508 ev

!    total energy              =     -59.98464108 Ry
     Harris-Foulkes estimate   =     -59.98464110 Ry
     estimated scf accuracy    <       0.00000019 Ry

     total all-electron energy =      -226.595631 Ry

     The total energy is the sum of the following terms:

     one-electron contribution =    -277.05973836 Ry
     hartree contribution      =     140.09126436 Ry
     xc contribution           =     -11.75571163 Ry
     ewald contribution        =     104.46309885 Ry
     one-center paw contrib.   =     -15.72355430 Ry
     smearing contrib. (-TS)   =      -0.00000000 Ry

     convergence has been achieved in   4 iterations

     Forces acting on atoms (Ry/au):


     negative rho (up, down):  4.855E-04 0.000E+00
     atom    1 type  1   force =     0.00000000    0.00263920   -0.03886935
     atom    2 type  2   force =     0.00000000   -0.00263920    0.03886935

     Total force =     0.055096     Total SCF correction =     0.000360

     number of scf cycles    =   2
     number of bfgs steps    =   1

     energy   old            =     -59.9848975127 Ry
     energy   new            =     -59.9846410771 Ry

     CASE: energy  _new > energy  _old

     new trust radius        =       0.0023450793 bohr
     new conv_thr            =       0.0000010000 Ry


ATOMIC_POSITIONS (alat)
C        0.500000000   0.288490019   3.074122586
O        0.500001000   0.229859981   3.464454414



     Writing output data file CO_hollow.save
     Check: negative starting charge=   -0.000325
     NEW-OLD atomic charge density approx. for the potential

     Check: negative/imaginary core charge=   -0.000003    0.000000
     Check: negative starting charge=   -0.000325

     negative rho (up, down):  4.841E-04 0.000E+00

     total cpu time spent up to now is      460.3 secs

     per-process dynamical memory:    79.8 Mb

     Self-consistent Calculation

     iteration #  1     ecut=    40.00 Ry     beta=0.70
     Davidson diagonalization with overlap
     ethr =  1.00E-06,  avg # of iterations =  3.0

     negative rho (up, down):  4.838E-04 0.000E+00

     total cpu time spent up to now is      505.5 secs

     total energy              =     -59.98486861 Ry
     Harris-Foulkes estimate   =     -59.98354384 Ry
     estimated scf accuracy    <       0.00014318 Ry

     iteration #  2     ecut=    40.00 Ry     beta=0.70
     Davidson diagonalization with overlap
     ethr =  1.43E-06,  avg # of iterations =  5.0

     negative rho (up, down):  4.824E-04 0.000E+00

     total cpu time spent up to now is      552.7 secs

     total energy              =     -59.98484063 Ry
     Harris-Foulkes estimate   =     -59.98498610 Ry
     estimated scf accuracy    <       0.00035645 Ry

     iteration #  3     ecut=    40.00 Ry     beta=0.70
     Davidson diagonalization with overlap
     ethr =  1.43E-06,  avg # of iterations =  3.9

     negative rho (up, down):  4.844E-04 0.000E+00

     total cpu time spent up to now is      588.6 secs

     total energy              =     -59.98491562 Ry
     Harris-Foulkes estimate   =     -59.98493109 Ry
     estimated scf accuracy    <       0.00004456 Ry

     iteration #  4     ecut=    40.00 Ry     beta=0.70
     Davidson diagonalization with overlap
     ethr =  4.46E-07,  avg # of iterations =  1.0

     negative rho (up, down):  4.841E-04 0.000E+00

     total cpu time spent up to now is      618.6 secs

     End of self-consistent calculation

          k = 0.0625 0.1083-0.0673 (  4518 PWs)   bands (ev):

   -28.8740 -13.8845 -10.5464  -9.9778  -9.3109   0.0660   0.5814   1.0088
     1.4042

          k = 0.0625 0.2526-0.0673 (  4466 PWs)   bands (ev):

   -28.7355 -13.6487 -11.3513 -10.1676  -8.7643  -0.9308   0.3351   1.9337
     2.2976

          k = 0.0625 0.3969-0.0673 (  4438 PWs)   bands (ev):

   -28.5658 -13.3748 -12.0705 -10.3873  -8.1606  -2.2182   0.0259   3.5699
     3.9221

          k = 0.0625 0.5413-0.0673 (  4394 PWs)   bands (ev):

   -28.4662 -13.2484 -12.3988 -10.5085  -7.7340  -3.0427  -0.1394   5.7654
     6.1726

          k = 0.0625-0.4691-0.0673 (  4416 PWs)   bands (ev):

   -28.5015 -13.2869 -12.2926 -10.4663  -7.8962  -2.7405  -0.0825   4.6247
     4.9923

          k = 0.0625-0.3248-0.0673 (  4460 PWs)   bands (ev):

   -28.6483 -13.5037 -11.7449 -10.2830  -8.4628  -1.5818   0.1719   2.6672
     3.0216

          k = 0.0625-0.1804-0.0673 (  4490 PWs)   bands (ev):

   -28.8145 -13.7829 -10.9355 -10.0596  -9.0492  -0.3560   0.4846   1.3780
     1.7571

          k = 0.0625-0.0361-0.0673 (  4520 PWs)   bands (ev):

   -28.9058 -13.9390 -10.2568  -9.9405  -9.5147   0.2871   0.6033   0.8355
     1.2314

          k = 0.1875 0.3248-0.0673 (  4450 PWs)   bands (ev):

   -28.5931 -13.4045 -11.8502 -10.5341  -8.2349  -1.7498  -0.3544   3.2143
     3.5661

          k = 0.1875 0.4691-0.0673 (  4428 PWs)   bands (ev):

   -28.4681 -13.2154 -12.1429 -10.9163  -7.7020  -2.5372  -0.8981   5.1542
     5.5328

          k = 0.1875 0.6134-0.0673 (  4432 PWs)   bands (ev):

   -28.4382 -13.1763 -12.1946 -11.0126  -7.5536  -2.7533  -1.0196   6.2812
     6.7315

          k = 0.1875-0.3969-0.0673 (  4450 PWs)   bands (ev):

   -28.5228 -13.2944 -12.0299 -10.7451  -7.9488  -2.1753  -0.6651   4.1097
     4.4646

          k = 0.1875-0.2526-0.0673 (  4452 PWs)   bands (ev):

   -28.6680 -13.5281 -11.6143 -10.3265  -8.5170  -1.3142  -0.0369   2.4870
     2.8441

          k = 0.1875-0.1083-0.0673 (  4480 PWs)   bands (ev):

   -28.7875 -13.7312 -11.0941 -10.0812  -8.9494  -0.5220   0.2892   1.5693
     1.9433

          k = 0.3125 0.5413-0.0673 (  4434 PWs)   bands (ev):

   -28.4127 -13.1004 -11.8759 -11.5634  -7.3955  -2.3198  -1.9187   7.1602
     7.7732

          k = 0.3125 0.6856-0.0673 (  4444 PWs)   bands (ev):

   -28.4325 -13.1331 -12.0602 -11.2486  -7.5052  -2.5168  -1.4578   6.1528
     6.5921

          k = 0.3125-0.3248-0.0673 (  4428 PWs)   bands (ev):

   -28.5163 -13.2661 -12.1683 -10.6018  -7.9300  -2.4599  -0.4629   4.2838
     4.6446

          k = 0.3125-0.1804-0.0673 (  4442 PWs)   bands (ev):

   -28.6140 -13.4251 -11.9272 -10.2717  -8.3422  -1.9297   0.0452   3.0322
     3.3879

          k = 0.4375 0.7578-0.0673 (  4420 PWs)   bands (ev):

   -28.4521 -13.1519 -12.3794 -10.7163  -7.6224  -3.0279  -0.6087   6.4081
     6.6303

          k = 0.4375-0.2526-0.0673 (  4396 PWs)   bands (ev):

   -28.4865 -13.2086 -12.4303 -10.4013  -7.8197  -3.0139  -0.1304   5.1328
     5.5260

          k = 0.1250 0.0000-0.0673 (  4518 PWs)   bands (ev):

   -28.8742 -13.8831 -10.5368  -9.9874  -9.3078   0.2627   0.3075   1.0189
     1.4087

          k =-0.1875 0.1804-0.0673 (  4466 PWs)   bands (ev):

   -28.7361 -13.6432 -11.3481 -10.1651  -8.7645  -0.8957   0.1978   1.9370
     2.3023

          k = 0.2500 0.0722-0.0673 (  4466 PWs)   bands (ev):

   -28.7365 -13.6393 -11.3415 -10.1712  -8.7617  -0.9022   0.1560   1.9385
     2.3047

          k =-0.3125 0.2526-0.0673 (  4438 PWs)   bands (ev):

   -28.5673 -13.3481 -12.0835 -10.3770  -8.1582  -2.2369  -0.1136   3.5720
     3.9275

          k = 0.3750 0.1443-0.0673 (  4438 PWs)   bands (ev):

   -28.5677 -13.3413 -12.0837 -10.3804  -8.1551  -2.2589  -0.1094   3.5717
     3.9285

          k =-0.4375 0.3248-0.0673 (  4394 PWs)   bands (ev):

   -28.4684 -13.1810 -12.4496 -10.4937  -7.7240  -3.0978  -0.2709   5.7785
     6.1966

          k = 0.5000 0.2165-0.0673 (  4394 PWs)   bands (ev):

   -28.4685 -13.1779 -12.4512 -10.4943  -7.7229  -3.1033  -0.2686   5.7761
     6.1980

          k = 0.4375-0.1804-0.0673 (  4416 PWs)   bands (ev):

   -28.5036 -13.2327 -12.3274 -10.4551  -7.8875  -2.7960  -0.2120   4.6269
     5.0006

          k =-0.3750-0.2887-0.0673 (  4416 PWs)   bands (ev):

   -28.5034 -13.2394 -12.3249 -10.4531  -7.8901  -2.7807  -0.2177   4.6279
     4.9996

          k = 0.3125-0.1083-0.0673 (  4460 PWs)   bands (ev):

   -28.6497 -13.4853 -11.7429 -10.2813  -8.4595  -1.5967   0.0217   2.6699
     3.0280

          k =-0.2500-0.2165-0.0673 (  4460 PWs)   bands (ev):

   -28.6493 -13.4908 -11.7464 -10.2765  -8.4626  -1.5741   0.0296   2.6696
     3.0266

          k = 0.1875-0.0361-0.0673 (  4490 PWs)   bands (ev):

   -28.8151 -13.7785 -10.9237 -10.0677  -9.0462  -0.2568   0.2600   1.3860
     1.7649

          k =-0.1250-0.1443-0.0673 (  4490 PWs)   bands (ev):

   -28.8148 -13.7812 -10.9323 -10.0601  -9.0491  -0.3101   0.3812   1.3818
     1.7607

          k = 0.0000-0.0722-0.0673 (  4520 PWs)   bands (ev):

   -28.9057 -13.9395 -10.2637  -9.9321  -9.5174   0.2256   0.7140   0.8189
     1.2282

          k = 0.3750 0.0000-0.0673 (  4450 PWs)   bands (ev):

   -28.5943 -13.3852 -11.8484 -10.5412  -8.2281  -1.8083  -0.3826   3.2146
     3.5689

          k =-0.3125 0.3969-0.0673 (  4428 PWs)   bands (ev):

   -28.4690 -13.1912 -12.1617 -10.9095  -7.6973  -2.5616  -0.9412   5.1551
     5.5356

          k = 0.5000 0.0722-0.0673 (  4428 PWs)   bands (ev):

   -28.4697 -13.1706 -12.1714 -10.9137  -7.6904  -2.6147  -0.9196   5.1531
     5.5385

          k =-0.4375 0.4691-0.0673 (  4432 PWs)   bands (ev):

   -28.4397 -13.1267 -12.2332 -11.0051  -7.5417  -2.8213  -1.0488   6.2805
     6.7426

          k = 0.6250 0.1443-0.0673 (  4432 PWs)   bands (ev):

   -28.4395 -13.1353 -12.2282 -11.0038  -7.5445  -2.8017  -1.0581   6.2856
     6.7382

          k = 0.4375-0.0361-0.0673 (  4450 PWs)   bands (ev):

   -28.5243 -13.2624 -12.0415 -10.7481  -7.9396  -2.2497  -0.6855   4.1093
     4.4685

          k =-0.2500-0.3608-0.0673 (  4450 PWs)   bands (ev):

   -28.5232 -13.2852 -12.0358 -10.7417  -7.9475  -2.1806  -0.6989   4.1100
     4.4659

          k = 0.3125 0.0361-0.0673 (  4452 PWs)   bands (ev):

   -28.6688 -13.5180 -11.6065 -10.3348  -8.5122  -1.3472  -0.0778   2.4882
     2.8474

          k =-0.1250-0.2887-0.0673 (  4452 PWs)   bands (ev):

   -28.6677 -13.5322 -11.6142 -10.3289  -8.5169  -1.3251   0.0236   2.4861
     2.8423

          k = 0.0000-0.2165-0.0673 (  4480 PWs)   bands (ev):

   -28.7869 -13.7366 -11.1022 -10.0796  -8.9504  -0.5916   0.4955   1.5625
     1.9356

          k = 0.6250 0.0000-0.0673 (  4434 PWs)   bands (ev):

   -28.4131 -13.0873 -11.8931 -11.5552  -7.3915  -2.3853  -1.8726   7.1512
     7.7607

          k =-0.4375 0.6134-0.0673 (  4444 PWs)   bands (ev):

   -28.4332 -13.1124 -12.0742 -11.2491  -7.4986  -2.5773  -1.4268   6.1487
     6.5975

          k = 0.7500 0.0722-0.0673 (  4444 PWs)   bands (ev):

   -28.4321 -13.1471 -12.0469 -11.2534  -7.5086  -2.4945  -1.4513   6.1520
     6.5905

          k = 0.4375 0.1083-0.0673 (  4428 PWs)   bands (ev):

   -28.5169 -13.2515 -12.1725 -10.6068  -7.9245  -2.4999  -0.4502   4.2828
     4.6464

          k =-0.1250-0.4330-0.0673 (  4428 PWs)   bands (ev):

   -28.5151 -13.2941 -12.1501 -10.6111  -7.9338  -2.4377  -0.3708   4.2825
     4.6406

          k = 0.0000-0.3608-0.0673 (  4442 PWs)   bands (ev):

   -28.6125 -13.4479 -11.9216 -10.2800  -8.3442  -1.9141   0.2093   3.0294
     3.3821

          k = 0.8750 0.0000-0.0673 (  4420 PWs)   bands (ev):

   -28.4501 -13.2138 -12.3318 -10.7277  -7.6341  -2.9685  -0.5243   6.3934
     6.6086

          k = 0.0000-0.5052-0.0673 (  4396 PWs)   bands (ev):

   -28.4843 -13.2726 -12.3846 -10.4164  -7.8284  -2.9603   0.0202   5.1264
     5.5129

     the Fermi energy is    -5.9134 ev

!    total energy              =     -59.98492275 Ry
     Harris-Foulkes estimate   =     -59.98492276 Ry
     estimated scf accuracy    <       0.00000011 Ry

     total all-electron energy =      -226.595913 Ry

     The total energy is the sum of the following terms:

     one-electron contribution =    -276.65816230 Ry
     hartree contribution      =     139.90144284 Ry
     xc contribution           =     -11.73957993 Ry
     ewald contribution        =     104.23519518 Ry
     one-center paw contrib.   =     -15.72381853 Ry
     smearing contrib. (-TS)   =      -0.00000000 Ry

     convergence has been achieved in   4 iterations

     Forces acting on atoms (Ry/au):


     negative rho (up, down):  4.841E-04 0.000E+00
     atom    1 type  1   force =     0.00000000   -0.00290856   -0.00092691
     atom    2 type  2   force =     0.00000000    0.00290856    0.00092691

     Total force =     0.004317     Total SCF correction =     0.000270

     number of scf cycles    =   3
     number of bfgs steps    =   1

     energy   old            =     -59.9848975127 Ry
     energy   new            =     -59.9849227452 Ry

     CASE: energy  _new < energy  _old

     new trust radius        =       0.0033238288 bohr
     new conv_thr            =       0.0000000100 Ry


ATOMIC_POSITIONS (alat)
C        0.500000000   0.287884422   3.074049521
O        0.500001000   0.230465578   3.464527479



     Writing output data file CO_hollow.save
     Check: negative starting charge=   -0.000325
     NEW-OLD atomic charge density approx. for the potential

     Check: negative/imaginary core charge=   -0.000003    0.000000
     Check: negative starting charge=   -0.000325

     negative rho (up, down):  4.841E-04 0.000E+00

     total cpu time spent up to now is      630.8 secs

     per-process dynamical memory:    79.8 Mb

     Self-consistent Calculation

     iteration #  1     ecut=    40.00 Ry     beta=0.70
     Davidson diagonalization with overlap
     ethr =  1.00E-06,  avg # of iterations =  2.0

     Threshold (ethr) on eigenvalues was too large:
     Diagonalizing with lowered threshold

     Davidson diagonalization with overlap
     ethr =  3.38E-08,  avg # of iterations =  1.3

     negative rho (up, down):  4.844E-04 0.000E+00

     total cpu time spent up to now is      692.5 secs

     total energy              =     -59.98494227 Ry
     Harris-Foulkes estimate   =     -59.98495813 Ry
     estimated scf accuracy    <       0.00000341 Ry

     iteration #  2     ecut=    40.00 Ry     beta=0.70
     Davidson diagonalization with overlap
     ethr =  3.41E-08,  avg # of iterations =  1.0

     negative rho (up, down):  4.844E-04 0.000E+00

     total cpu time spent up to now is      721.6 secs

     total energy              =     -59.98494258 Ry
     Harris-Foulkes estimate   =     -59.98494263 Ry
     estimated scf accuracy    <       0.00000013 Ry

     iteration #  3     ecut=    40.00 Ry     beta=0.70
     Davidson diagonalization with overlap
     ethr =  1.33E-09,  avg # of iterations =  2.0

     negative rho (up, down):  4.844E-04 0.000E+00

     total cpu time spent up to now is      753.4 secs

     total energy              =     -59.98494255 Ry
     Harris-Foulkes estimate   =     -59.98494269 Ry
     estimated scf accuracy    <       0.00000037 Ry

     iteration #  4     ecut=    40.00 Ry     beta=0.70
     Davidson diagonalization with overlap
     ethr =  1.33E-09,  avg # of iterations =  2.0

     negative rho (up, down):  4.844E-04 0.000E+00

     total cpu time spent up to now is      786.2 secs

     total energy              =     -59.98494262 Ry
     Harris-Foulkes estimate   =     -59.98494263 Ry
     estimated scf accuracy    <       0.00000003 Ry

     iteration #  5     ecut=    40.00 Ry     beta=0.70
     Davidson diagonalization with overlap
     ethr =  2.68E-10,  avg # of iterations =  1.0

     negative rho (up, down):  4.844E-04 0.000E+00

     total cpu time spent up to now is      815.1 secs

     End of self-consistent calculation

          k = 0.0625 0.1083-0.0673 (  4518 PWs)   bands (ev):

   -28.8773 -13.8864 -10.5474  -9.9801  -9.3132   0.0755   0.5841   1.0083
     1.4036

          k = 0.0625 0.2526-0.0673 (  4466 PWs)   bands (ev):

   -28.7389 -13.6501 -11.3524 -10.1699  -8.7658  -0.9286   0.3362   1.9333
     2.2978

          k = 0.0625 0.3969-0.0673 (  4438 PWs)   bands (ev):

   -28.5694 -13.3749 -12.0725 -10.3893  -8.1611  -2.2204   0.0259   3.5694
     3.9227

          k = 0.0625 0.5413-0.0673 (  4394 PWs)   bands (ev):

   -28.4699 -13.2464 -12.4027 -10.5103  -7.7336  -3.0469  -0.1399   5.7648
     6.1738

          k = 0.0625-0.4691-0.0673 (  4416 PWs)   bands (ev):

   -28.5051 -13.2858 -12.2956 -10.4682  -7.8963  -2.7440  -0.0828   4.6241
     4.9930

          k = 0.0625-0.3248-0.0673 (  4460 PWs)   bands (ev):

   -28.6517 -13.5047 -11.7463 -10.2852  -8.4639  -1.5821   0.1723   2.6667
     3.0219

          k = 0.0625-0.1804-0.0673 (  4490 PWs)   bands (ev):

   -28.8179 -13.7846 -10.9365 -10.0619  -9.0511  -0.3505   0.4865   1.3776
     1.7571

          k = 0.0625-0.0361-0.0673 (  4520 PWs)   bands (ev):

   -28.9090 -13.9409 -10.2576  -9.9427  -9.5175   0.3005   0.6052   0.8350
     1.2311

          k = 0.1875 0.3248-0.0673 (  4450 PWs)   bands (ev):

   -28.5966 -13.4054 -11.8517 -10.5363  -8.2356  -1.7511  -0.3524   3.2137
     3.5664

          k = 0.1875 0.4691-0.0673 (  4428 PWs)   bands (ev):

   -28.4717 -13.2148 -12.1456 -10.9182  -7.7018  -2.5406  -0.8982   5.1536
     5.5338

          k = 0.1875 0.6134-0.0673 (  4432 PWs)   bands (ev):

   -28.4418 -13.1751 -12.1979 -11.0144  -7.5531  -2.7573  -1.0200   6.2806
     6.7328

          k = 0.1875-0.3969-0.0673 (  4450 PWs)   bands (ev):

   -28.5263 -13.2946 -12.0319 -10.7471  -7.9491  -2.1777  -0.6645   4.1091
     4.4653

          k = 0.1875-0.2526-0.0673 (  4452 PWs)   bands (ev):

   -28.6715 -13.5294 -11.6155 -10.3288  -8.5181  -1.3145  -0.0329   2.4865
     2.8442

          k = 0.1875-0.1083-0.0673 (  4480 PWs)   bands (ev):

   -28.7909 -13.7330 -11.0954 -10.0834  -8.9512  -0.5203   0.2977   1.5688
     1.9432

          k = 0.3125 0.5413-0.0673 (  4434 PWs)   bands (ev):

   -28.4163 -13.1004 -11.8782 -11.5652  -7.3950  -2.3225  -1.9195   7.1593
     7.7754

          k = 0.3125 0.6856-0.0673 (  4444 PWs)   bands (ev):

   -28.4361 -13.1332 -12.0624 -11.2506  -7.5049  -2.5194  -1.4577   6.1521
     6.5932

          k = 0.3125-0.3248-0.0673 (  4428 PWs)   bands (ev):

   -28.5199 -13.2669 -12.1700 -10.6041  -7.9303  -2.4619  -0.4593   4.2831
     4.6453

          k = 0.3125-0.1804-0.0673 (  4442 PWs)   bands (ev):

   -28.6175 -13.4266 -11.9286 -10.2741  -8.3432  -1.9303   0.0517   3.0316
     3.3882

          k = 0.4375 0.7578-0.0673 (  4420 PWs)   bands (ev):

   -28.4556 -13.1525 -12.3814 -10.7186  -7.6223  -3.0297  -0.6058   6.4076
     6.6284

          k = 0.4375-0.2526-0.0673 (  4396 PWs)   bands (ev):

   -28.4900 -13.2093 -12.4322 -10.4038  -7.8199  -3.0157  -0.1248   5.1320
     5.5265

          k = 0.1250 0.0000-0.0673 (  4518 PWs)   bands (ev):

   -28.8775 -13.8850 -10.5382  -9.9894  -9.3101   0.2646   0.3200   1.0182
     1.4084

          k =-0.1875 0.1804-0.0673 (  4466 PWs)   bands (ev):

   -28.7395 -13.6449 -11.3493 -10.1674  -8.7660  -0.8949   0.2041   1.9365
     2.3023

          k = 0.2500 0.0722-0.0673 (  4466 PWs)   bands (ev):

   -28.7399 -13.6411 -11.3430 -10.1733  -8.7633  -0.9012   0.1639   1.9379
     2.3047

          k =-0.3125 0.2526-0.0673 (  4438 PWs)   bands (ev):

   -28.5708 -13.3493 -12.0850 -10.3794  -8.1589  -2.2383  -0.1081   3.5714
     3.9280

          k = 0.3750 0.1443-0.0673 (  4438 PWs)   bands (ev):

   -28.5711 -13.3427 -12.0852 -10.3827  -8.1559  -2.2594  -0.1041   3.5711
     3.9289

          k =-0.4375 0.3248-0.0673 (  4394 PWs)   bands (ev):

   -28.4719 -13.1815 -12.4516 -10.4962  -7.7240  -3.0998  -0.2661   5.7775
     6.1970

          k = 0.5000 0.2165-0.0673 (  4394 PWs)   bands (ev):

   -28.4720 -13.1786 -12.4531 -10.4968  -7.7230  -3.1050  -0.2640   5.7752
     6.1983

          k = 0.4375-0.1804-0.0673 (  4416 PWs)   bands (ev):

   -28.5071 -13.2338 -12.3291 -10.4574  -7.8879  -2.7971  -0.2072   4.6263
     5.0011

          k =-0.3750-0.2887-0.0673 (  4416 PWs)   bands (ev):

   -28.5069 -13.2402 -12.3267 -10.4555  -7.8903  -2.7825  -0.2126   4.6271
     5.0002

          k = 0.3125-0.1083-0.0673 (  4460 PWs)   bands (ev):

   -28.6531 -13.4870 -11.7444 -10.2835  -8.4607  -1.5964   0.0280   2.6693
     3.0280

          k =-0.2500-0.2165-0.0673 (  4460 PWs)   bands (ev):

   -28.6527 -13.4922 -11.7477 -10.2789  -8.4636  -1.5747   0.0357   2.6690
     3.0266

          k = 0.1875-0.0361-0.0673 (  4490 PWs)   bands (ev):

   -28.8184 -13.7804 -10.9252 -10.0698  -9.0482  -0.2551   0.2702   1.3854
     1.7647

          k =-0.1250-0.1443-0.0673 (  4490 PWs)   bands (ev):

   -28.8181 -13.7829 -10.9335 -10.0624  -9.0509  -0.3060   0.3867   1.3813
     1.7606

          k = 0.0000-0.0722-0.0673 (  4520 PWs)   bands (ev):

   -28.9090 -13.9414 -10.2643  -9.9346  -9.5201   0.2386   0.7156   0.8184
     1.2280

          k = 0.3750 0.0000-0.0673 (  4450 PWs)   bands (ev):

   -28.5978 -13.3869 -11.8499 -10.5432  -8.2291  -1.8072  -0.3795   3.2141
     3.5693

          k =-0.3125 0.3969-0.0673 (  4428 PWs)   bands (ev):

   -28.4725 -13.1916 -12.1637 -10.9117  -7.6973  -2.5639  -0.9395   5.1544
     5.5364

          k = 0.5000 0.0722-0.0673 (  4428 PWs)   bands (ev):

   -28.4732 -13.1718 -12.1729 -10.9156  -7.6907  -2.6149  -0.9189   5.1525
     5.5392

          k =-0.4375 0.4691-0.0673 (  4432 PWs)   bands (ev):

   -28.4433 -13.1275 -12.2350 -11.0072  -7.5417  -2.8225  -1.0481   6.2799
     6.7435

          k = 0.6250 0.1443-0.0673 (  4432 PWs)   bands (ev):

   -28.4430 -13.1358 -12.2301 -11.0059  -7.5444  -2.8037  -1.0570   6.2848
     6.7393

          k = 0.4375-0.0361-0.0673 (  4450 PWs)   bands (ev):

   -28.5277 -13.2639 -12.0430 -10.7501  -7.9403  -2.2490  -0.6840   4.1088
     4.4690

          k =-0.2500-0.3608-0.0673 (  4450 PWs)   bands (ev):

   -28.5267 -13.2858 -12.0376 -10.7439  -7.9479  -2.1829  -0.6968   4.1094
     4.4665

          k = 0.3125 0.0361-0.0673 (  4452 PWs)   bands (ev):

   -28.6722 -13.5198 -11.6080 -10.3368  -8.5135  -1.3461  -0.0723   2.4876
     2.8473

          k =-0.1250-0.2887-0.0673 (  4452 PWs)   bands (ev):

   -28.6711 -13.5334 -11.6154 -10.3312  -8.5181  -1.3249   0.0252   2.4856
     2.8424

          k = 0.0000-0.2165-0.0673 (  4480 PWs)   bands (ev):

   -28.7902 -13.7382 -11.1032 -10.0819  -8.9521  -0.5873   0.4964   1.5622
     1.9357

          k = 0.6250 0.0000-0.0673 (  4434 PWs)   bands (ev):

   -28.4167 -13.0879 -11.8947 -11.5573  -7.3912  -2.3854  -1.8752   7.1507
     7.7625

          k =-0.4375 0.6134-0.0673 (  4444 PWs)   bands (ev):

   -28.4367 -13.1133 -12.0757 -11.2511  -7.4986  -2.5774  -1.4280   6.1481
     6.5984

          k = 0.7500 0.0722-0.0673 (  4444 PWs)   bands (ev):

   -28.4357 -13.1467 -12.0496 -11.2552  -7.5082  -2.4980  -1.4515   6.1512
     6.5917

          k = 0.4375 0.1083-0.0673 (  4428 PWs)   bands (ev):

   -28.5204 -13.2529 -12.1740 -10.6089  -7.9250  -2.5002  -0.4471   4.2823
     4.6469

          k =-0.1250-0.4330-0.0673 (  4428 PWs)   bands (ev):

   -28.5187 -13.2938 -12.1526 -10.6130  -7.9340  -2.4406  -0.3709   4.2819
     4.6413

          k = 0.0000-0.3608-0.0673 (  4442 PWs)   bands (ev):

   -28.6160 -13.4485 -11.9232 -10.2820  -8.3451  -1.9154   0.2094   3.0290
     3.3824

          k = 0.8750 0.0000-0.0673 (  4420 PWs)   bands (ev):

   -28.4538 -13.2121 -12.3356 -10.7295  -7.6336  -2.9728  -0.5248   6.3935
     6.6074

          k = 0.0000-0.5052-0.0673 (  4396 PWs)   bands (ev):

   -28.4879 -13.2709 -12.3882 -10.4183  -7.8282  -2.9643   0.0198   5.1258
     5.5139

     the Fermi energy is    -5.9133 ev

!    total energy              =     -59.98494262 Ry
     Harris-Foulkes estimate   =     -59.98494262 Ry
     estimated scf accuracy    <          8.7E-11 Ry

     total all-electron energy =      -226.595933 Ry

     The total energy is the sum of the following terms:

     one-electron contribution =    -276.64856874 Ry
     hartree contribution      =     139.89630079 Ry
     xc contribution           =     -11.73972519 Ry
     ewald contribution        =     104.23085921 Ry
     one-center paw contrib.   =     -15.72380871 Ry
     smearing contrib. (-TS)   =      -0.00000000 Ry

     convergence has been achieved in   5 iterations

     Forces acting on atoms (Ry/au):


     negative rho (up, down):  4.844E-04 0.000E+00
     atom    1 type  1   force =     0.00000000   -0.00276155   -0.00150617
     atom    2 type  2   force =     0.00000000    0.00276155    0.00150617

     Total force =     0.004449     Total SCF correction =     0.000021

     number of scf cycles    =   4
     number of bfgs steps    =   2

     energy   old            =     -59.9849227452 Ry
     energy   new            =     -59.9849426248 Ry

     CASE: energy  _new < energy  _old


     WARNING: bfgs curvature condition failed, Theta= 0.821
     new trust radius        =       0.0036562117 bohr
     new conv_thr            =       0.0000000100 Ry


ATOMIC_POSITIONS (alat)
C        0.500000000   0.287219434   3.073959993
O        0.500001000   0.231130566   3.464617007



     Writing output data file CO_hollow.save
     Check: negative starting charge=   -0.000325
     NEW-OLD atomic charge density approx. for the potential

     Check: negative/imaginary core charge=   -0.000003    0.000000
     Check: negative starting charge=   -0.000325

     negative rho (up, down):  4.844E-04 0.000E+00

     total cpu time spent up to now is      827.7 secs

     per-process dynamical memory:    79.8 Mb

     Self-consistent Calculation

     iteration #  1     ecut=    40.00 Ry     beta=0.70
     Davidson diagonalization with overlap
     ethr =  1.00E-06,  avg # of iterations =  2.0

     Threshold (ethr) on eigenvalues was too large:
     Diagonalizing with lowered threshold

     Davidson diagonalization with overlap
     ethr =  4.10E-08,  avg # of iterations =  1.2

     negative rho (up, down):  4.846E-04 0.000E+00

     total cpu time spent up to now is      885.2 secs

     total energy              =     -59.98496344 Ry
     Harris-Foulkes estimate   =     -59.98496893 Ry
     estimated scf accuracy    <       0.00000414 Ry

     iteration #  2     ecut=    40.00 Ry     beta=0.70
     Davidson diagonalization with overlap
     ethr =  4.14E-08,  avg # of iterations =  1.0

     negative rho (up, down):  4.846E-04 0.000E+00

     total cpu time spent up to now is      910.5 secs

     total energy              =     -59.98496385 Ry
     Harris-Foulkes estimate   =     -59.98496386 Ry
     estimated scf accuracy    <       0.00000011 Ry

     iteration #  3     ecut=    40.00 Ry     beta=0.70
     Davidson diagonalization with overlap
     ethr =  1.06E-09,  avg # of iterations =  2.0

     negative rho (up, down):  4.846E-04 0.000E+00

     total cpu time spent up to now is      938.5 secs

     total energy              =     -59.98496383 Ry
     Harris-Foulkes estimate   =     -59.98496388 Ry
     estimated scf accuracy    <       0.00000009 Ry

     iteration #  4     ecut=    40.00 Ry     beta=0.70
     Davidson diagonalization with overlap
     ethr =  8.56E-10,  avg # of iterations =  2.0

     negative rho (up, down):  4.847E-04 0.000E+00

     total cpu time spent up to now is      964.4 secs

     total energy              =     -59.98496385 Ry
     Harris-Foulkes estimate   =     -59.98496388 Ry
     estimated scf accuracy    <       0.00000008 Ry

     iteration #  5     ecut=    40.00 Ry     beta=0.70
     Davidson diagonalization with overlap
     ethr =  8.38E-10,  avg # of iterations =  1.0

     negative rho (up, down):  4.846E-04 0.000E+00

     total cpu time spent up to now is      990.3 secs

     End of self-consistent calculation

          k = 0.0625 0.1083-0.0673 (  4518 PWs)   bands (ev):

   -28.8784 -13.8878 -10.5476  -9.9814  -9.3155   0.0850   0.5863   1.0082
     1.4026

          k = 0.0625 0.2526-0.0673 (  4466 PWs)   bands (ev):

   -28.7402 -13.6511 -11.3527 -10.1710  -8.7676  -0.9271   0.3365   1.9333
     2.2976

          k = 0.0625 0.3969-0.0673 (  4438 PWs)   bands (ev):

   -28.5707 -13.3742 -12.0738 -10.3902  -8.1622  -2.2236   0.0250   3.5693
     3.9229

          k = 0.0625 0.5413-0.0673 (  4394 PWs)   bands (ev):

   -28.4713 -13.2434 -12.4061 -10.5111  -7.7339  -3.0524  -0.1412   5.7646
     6.1744

          k = 0.0625-0.4691-0.0673 (  4416 PWs)   bands (ev):

   -28.5065 -13.2839 -12.2981 -10.4690  -7.8968  -2.7487  -0.0840   4.6240
     4.9933

          k = 0.0625-0.3248-0.0673 (  4460 PWs)   bands (ev):

   -28.6530 -13.5050 -11.7469 -10.2862  -8.4654  -1.5834   0.1720   2.6666
     3.0217

          k = 0.0625-0.1804-0.0673 (  4490 PWs)   bands (ev):

   -28.8191 -13.7859 -10.9367 -10.0632  -9.0531  -0.3454   0.4878   1.3776
     1.7566

          k = 0.0625-0.0361-0.0673 (  4520 PWs)   bands (ev):

   -28.9102 -13.9425 -10.2578  -9.9437  -9.5203   0.3143   0.6066   0.8348
     1.2306

          k = 0.1875 0.3248-0.0673 (  4450 PWs)   bands (ev):

   -28.5979 -13.4056 -11.8524 -10.5375  -8.2369  -1.7534  -0.3510   3.2136
     3.5663

          k = 0.1875 0.4691-0.0673 (  4428 PWs)   bands (ev):

   -28.4730 -13.2133 -12.1476 -10.9191  -7.7022  -2.5451  -0.8992   5.1534
     5.5341

          k = 0.1875 0.6134-0.0673 (  4432 PWs)   bands (ev):

   -28.4432 -13.1730 -12.2005 -11.0152  -7.5532  -2.7625  -1.0214   6.2803
     6.7336

          k = 0.1875-0.3969-0.0673 (  4450 PWs)   bands (ev):

   -28.5277 -13.2940 -12.0331 -10.7482  -7.9500  -2.1812  -0.6646   4.1090
     4.4655

          k = 0.1875-0.2526-0.0673 (  4452 PWs)   bands (ev):

   -28.6727 -13.5302 -11.6159 -10.3301  -8.5197  -1.3156  -0.0294   2.4864
     2.8439

          k = 0.1875-0.1083-0.0673 (  4480 PWs)   bands (ev):

   -28.7921 -13.7344 -11.0960 -10.0845  -8.9532  -0.5193   0.3061   1.5685
     1.9427

          k = 0.3125 0.5413-0.0673 (  4434 PWs)   bands (ev):

   -28.4177 -13.0995 -11.8797 -11.5662  -7.3952  -2.3263  -1.9212   7.1587
     7.7772

          k = 0.3125 0.6856-0.0673 (  4444 PWs)   bands (ev):

   -28.4375 -13.1324 -12.0638 -11.2518  -7.5052  -2.5230  -1.4586   6.1518
     6.5937

          k = 0.3125-0.3248-0.0673 (  4428 PWs)   bands (ev):

   -28.5212 -13.2670 -12.1710 -10.6054  -7.9312  -2.4649  -0.4562   4.2829
     4.6453

          k = 0.3125-0.1804-0.0673 (  4442 PWs)   bands (ev):

   -28.6187 -13.4275 -11.9292 -10.2754  -8.3446  -1.9318   0.0579   3.0314
     3.3881

          k = 0.4375 0.7578-0.0673 (  4420 PWs)   bands (ev):

   -28.4569 -13.1523 -12.3827 -10.7199  -7.6229  -3.0326  -0.6036   6.4074
     6.6264

          k = 0.4375-0.2526-0.0673 (  4396 PWs)   bands (ev):

   -28.4913 -13.2094 -12.4334 -10.4052  -7.8206  -3.0184  -0.1196   5.1315
     5.5265

          k = 0.1250 0.0000-0.0673 (  4518 PWs)   bands (ev):

   -28.8786 -13.8865 -10.5389  -9.9903  -9.3126   0.2658   0.3329   1.0179
     1.4078

          k =-0.1875 0.1804-0.0673 (  4466 PWs)   bands (ev):

   -28.7407 -13.6460 -11.3497 -10.1687  -8.7678  -0.8949   0.2102   1.9363
     2.3020

          k = 0.2500 0.0722-0.0673 (  4466 PWs)   bands (ev):

   -28.7411 -13.6424 -11.3437 -10.1743  -8.7652  -0.9009   0.1717   1.9377
     2.3043

          k =-0.3125 0.2526-0.0673 (  4438 PWs)   bands (ev):

   -28.5721 -13.3498 -12.0857 -10.3807  -8.1600  -2.2407  -0.1030   3.5712
     3.9279

          k = 0.3750 0.1443-0.0673 (  4438 PWs)   bands (ev):

   -28.5724 -13.3436 -12.0859 -10.3839  -8.1572  -2.2608  -0.0992   3.5709
     3.9288

          k =-0.4375 0.3248-0.0673 (  4394 PWs)   bands (ev):

   -28.4732 -13.1813 -12.4530 -10.4976  -7.7246  -3.1028  -0.2618   5.7768
     6.1966

          k = 0.5000 0.2165-0.0673 (  4394 PWs)   bands (ev):

   -28.4733 -13.1785 -12.4544 -10.4981  -7.7237  -3.1078  -0.2597   5.7746
     6.1979

          k = 0.4375-0.1804-0.0673 (  4416 PWs)   bands (ev):

   -28.5084 -13.2341 -12.3301 -10.4587  -7.8888  -2.7993  -0.2028   4.6260
     5.0011

          k =-0.3750-0.2887-0.0673 (  4416 PWs)   bands (ev):

   -28.5082 -13.2403 -12.3278 -10.4569  -7.8912  -2.7854  -0.2080   4.6268
     5.0002

          k = 0.3125-0.1083-0.0673 (  4460 PWs)   bands (ev):

   -28.6543 -13.4881 -11.7450 -10.2846  -8.4624  -1.5969   0.0340   2.6692
     3.0276

          k =-0.2500-0.2165-0.0673 (  4460 PWs)   bands (ev):

   -28.6540 -13.4931 -11.7482 -10.2802  -8.4651  -1.5763   0.0414   2.6689
     3.0263

          k = 0.1875-0.0361-0.0673 (  4490 PWs)   bands (ev):

   -28.8196 -13.7819 -10.9259 -10.0706  -9.0504  -0.2541   0.2805   1.3851
     1.7641

          k =-0.1250-0.1443-0.0673 (  4490 PWs)   bands (ev):

   -28.8193 -13.7843 -10.9338 -10.0637  -9.0530  -0.3025   0.3919   1.3811
     1.7601

          k = 0.0000-0.0722-0.0673 (  4520 PWs)   bands (ev):

   -28.9101 -13.9429 -10.2642  -9.9360  -9.5228   0.2519   0.7165   0.8182
     1.2274

          k = 0.3750 0.0000-0.0673 (  4450 PWs)   bands (ev):

   -28.5990 -13.3880 -11.8507 -10.5440  -8.2307  -1.8069  -0.3770   3.2140
     3.5691

          k =-0.3125 0.3969-0.0673 (  4428 PWs)   bands (ev):

   -28.4738 -13.1911 -12.1649 -10.9129  -7.6980  -2.5674  -0.9386   5.1542
     5.5367

          k = 0.5000 0.0722-0.0673 (  4428 PWs)   bands (ev):

   -28.4745 -13.1723 -12.1737 -10.9167  -7.6916  -2.6160  -0.9189   5.1524
     5.5393

          k =-0.4375 0.4691-0.0673 (  4432 PWs)   bands (ev):

   -28.4446 -13.1275 -12.2360 -11.0083  -7.5423  -2.8246  -1.0482   6.2797
     6.7437

          k = 0.6250 0.1443-0.0673 (  4432 PWs)   bands (ev):

   -28.4444 -13.1354 -12.2314 -11.0071  -7.5449  -2.8067  -1.0567   6.2844
     6.7397

          k = 0.4375-0.0361-0.0673 (  4450 PWs)   bands (ev):

   -28.5290 -13.2648 -12.0438 -10.7510  -7.9415  -2.2492  -0.6832   4.1087
     4.4690

          k =-0.2500-0.3608-0.0673 (  4450 PWs)   bands (ev):

   -28.5281 -13.2856 -12.0386 -10.7451  -7.9488  -2.1861  -0.6955   4.1093
     4.4666

          k = 0.3125 0.0361-0.0673 (  4452 PWs)   bands (ev):

   -28.6735 -13.5211 -11.6087 -10.3377  -8.5153  -1.3458  -0.0671   2.4875
     2.8469

          k =-0.1250-0.2887-0.0673 (  4452 PWs)   bands (ev):

   -28.6724 -13.5341 -11.6158 -10.3323  -8.5196  -1.3255   0.0261   2.4856
     2.8422

          k = 0.0000-0.2165-0.0673 (  4480 PWs)   bands (ev):

   -28.7915 -13.7393 -11.1034 -10.0831  -8.9541  -0.5835   0.4965   1.5622
     1.9354

          k = 0.6250 0.0000-0.0673 (  4434 PWs)   bands (ev):

   -28.4180 -13.0875 -11.8954 -11.5587  -7.3915  -2.3864  -1.8789   7.1505
     7.7641

          k =-0.4375 0.6134-0.0673 (  4444 PWs)   bands (ev):

   -28.4381 -13.1135 -12.0765 -11.2522  -7.4992  -2.5784  -1.4302   6.1480
     6.5987

          k = 0.7500 0.0722-0.0673 (  4444 PWs)   bands (ev):

   -28.4371 -13.1453 -12.0516 -11.2561  -7.5084  -2.5026  -1.4526   6.1509
     6.5923

          k = 0.4375 0.1083-0.0673 (  4428 PWs)   bands (ev):

   -28.5217 -13.2536 -12.1748 -10.6100  -7.9262  -2.5015  -0.4446   4.2821
     4.6469

          k =-0.1250-0.4330-0.0673 (  4428 PWs)   bands (ev):

   -28.5200 -13.2926 -12.1543 -10.6139  -7.9348  -2.4446  -0.3717   4.2818
     4.6416

          k = 0.0000-0.3608-0.0673 (  4442 PWs)   bands (ev):

   -28.6173 -13.4483 -11.9241 -10.2830  -8.3464  -1.9177   0.2086   3.0289
     3.3823

          k = 0.8750 0.0000-0.0673 (  4420 PWs)   bands (ev):

   -28.4552 -13.2093 -12.3388 -10.7302  -7.6337  -2.9782  -0.5261   6.3939
     6.6063

          k = 0.0000-0.5052-0.0673 (  4396 PWs)   bands (ev):

   -28.4893 -13.2683 -12.3912 -10.4190  -7.8286  -2.9694   0.0186   5.1256
     5.5143

     the Fermi energy is    -5.9125 ev

!    total energy              =     -59.98496387 Ry
     Harris-Foulkes estimate   =     -59.98496387 Ry
     estimated scf accuracy    <          8.3E-11 Ry

     total all-electron energy =      -226.595954 Ry

     The total energy is the sum of the following terms:

     one-electron contribution =    -276.63492425 Ry
     hartree contribution      =     139.88913543 Ry
     xc contribution           =     -11.73973939 Ry
     ewald contribution        =     104.22436919 Ry
     one-center paw contrib.   =     -15.72380484 Ry
     smearing contrib. (-TS)   =      -0.00000000 Ry

     convergence has been achieved in   5 iterations

     Forces acting on atoms (Ry/au):


     negative rho (up, down):  4.846E-04 0.000E+00
     atom    1 type  1   force =     0.00000000   -0.00267242   -0.00164195
     atom    2 type  2   force =     0.00000000    0.00267242    0.00164195

     Total force =     0.004436     Total SCF correction =     0.000016

     number of scf cycles    =   5
     number of bfgs steps    =   3

     energy   old            =     -59.9849426248 Ry
     energy   new            =     -59.9849638663 Ry

     CASE: energy  _new < energy  _old

     new trust radius        =       0.0054843175 bohr
     new conv_thr            =       0.0000000100 Ry


ATOMIC_POSITIONS (alat)
C        0.500000000   0.286223248   3.073816404
O        0.500001000   0.232126752   3.464760596



     Writing output data file CO_hollow.save
     Check: negative starting charge=   -0.000325
     NEW-OLD atomic charge density approx. for the potential

     Check: negative/imaginary core charge=   -0.000003    0.000000
     Check: negative starting charge=   -0.000325

     negative rho (up, down):  4.846E-04 0.000E+00

     total cpu time spent up to now is     1000.5 secs

     per-process dynamical memory:    79.8 Mb

     Self-consistent Calculation

     iteration #  1     ecut=    40.00 Ry     beta=0.70
     Davidson diagonalization with overlap
     ethr =  1.00E-06,  avg # of iterations =  2.8

     Threshold (ethr) on eigenvalues was too large:
     Diagonalizing with lowered threshold

     Davidson diagonalization with overlap
     ethr =  9.24E-08,  avg # of iterations =  1.1

     negative rho (up, down):  4.848E-04 0.000E+00

     total cpu time spent up to now is     1052.3 secs

     total energy              =     -59.98499395 Ry
     Harris-Foulkes estimate   =     -59.98498380 Ry
     estimated scf accuracy    <       0.00000930 Ry

     iteration #  2     ecut=    40.00 Ry     beta=0.70
     Davidson diagonalization with overlap
     ethr =  9.30E-08,  avg # of iterations =  1.0

     negative rho (up, down):  4.849E-04 0.000E+00

     total cpu time spent up to now is     1075.4 secs

     total energy              =     -59.98499487 Ry
     Harris-Foulkes estimate   =     -59.98499489 Ry
     estimated scf accuracy    <       0.00000022 Ry

     iteration #  3     ecut=    40.00 Ry     beta=0.70
     Davidson diagonalization with overlap
     ethr =  2.24E-09,  avg # of iterations =  1.1

     negative rho (up, down):  4.849E-04 0.000E+00

     total cpu time spent up to now is     1095.8 secs

     total energy              =     -59.98499486 Ry
     Harris-Foulkes estimate   =     -59.98499490 Ry
     estimated scf accuracy    <       0.00000006 Ry

     iteration #  4     ecut=    40.00 Ry     beta=0.70
     Davidson diagonalization with overlap
     ethr =  5.86E-10,  avg # of iterations =  2.0

     negative rho (up, down):  4.849E-04 0.000E+00

     total cpu time spent up to now is     1122.2 secs

     total energy              =     -59.98499486 Ry
     Harris-Foulkes estimate   =     -59.98499493 Ry
     estimated scf accuracy    <       0.00000020 Ry

     iteration #  5     ecut=    40.00 Ry     beta=0.70
     Davidson diagonalization with overlap
     ethr =  5.86E-10,  avg # of iterations =  2.0

     negative rho (up, down):  4.849E-04 0.000E+00

     total cpu time spent up to now is     1144.1 secs

     End of self-consistent calculation

          k = 0.0625 0.1083-0.0673 (  4518 PWs)   bands (ev):

   -28.8790 -13.8901 -10.5474  -9.9824  -9.3186   0.0982   0.5889   1.0082
     1.4015

          k = 0.0625 0.2526-0.0673 (  4466 PWs)   bands (ev):

   -28.7408 -13.6524 -11.3523 -10.1719  -8.7702  -0.9256   0.3363   1.9336
     2.2973

          k = 0.0625 0.3969-0.0673 (  4438 PWs)   bands (ev):

   -28.5715 -13.3733 -12.0751 -10.3907  -8.1639  -2.2289   0.0230   3.5695
     3.9230

          k = 0.0625 0.5413-0.0673 (  4394 PWs)   bands (ev):

   -28.4721 -13.2390 -12.4104 -10.5114  -7.7343  -3.0609  -0.1439   5.7647
     6.1751

          k = 0.0625-0.4691-0.0673 (  4416 PWs)   bands (ev):

   -28.5073 -13.2810 -12.3010 -10.4694  -7.8978  -2.7561  -0.0864   4.6241
     4.9936

          k = 0.0625-0.3248-0.0673 (  4460 PWs)   bands (ev):

   -28.6537 -13.5055 -11.7470 -10.2869  -8.4676  -1.5858   0.1707   2.6669
     3.0216

          k = 0.0625-0.1804-0.0673 (  4490 PWs)   bands (ev):

   -28.8197 -13.7878 -10.9364 -10.0642  -9.0560  -0.3386   0.4890   1.3779
     1.7560

          k = 0.0625-0.0361-0.0673 (  4520 PWs)   bands (ev):

   -28.9107 -13.9448 -10.2575  -9.9444  -9.5241   0.3340   0.6081   0.8348
     1.2298

          k = 0.1875 0.3248-0.0673 (  4450 PWs)   bands (ev):

   -28.5986 -13.4060 -11.8527 -10.5384  -8.2388  -1.7575  -0.3498   3.2138
     3.5662

          k = 0.1875 0.4691-0.0673 (  4428 PWs)   bands (ev):

   -28.4738 -13.2112 -12.1499 -10.9197  -7.7030  -2.5523  -0.9013   5.1535
     5.5346

          k = 0.1875 0.6134-0.0673 (  4432 PWs)   bands (ev):

   -28.4440 -13.1699 -12.2037 -11.0156  -7.5535  -2.7707  -1.0240   6.2803
     6.7346

          k = 0.1875-0.3969-0.0673 (  4450 PWs)   bands (ev):

   -28.5284 -13.2932 -12.0343 -10.7489  -7.9513  -2.1870  -0.6655   4.1092
     4.4656

          k = 0.1875-0.2526-0.0673 (  4452 PWs)   bands (ev):

   -28.6734 -13.5314 -11.6158 -10.3311  -8.5219  -1.3179  -0.0250   2.4866
     2.8436

          k = 0.1875-0.1083-0.0673 (  4480 PWs)   bands (ev):

   -28.7926 -13.7365 -11.0961 -10.0853  -8.9560  -0.5186   0.3177   1.5685
     1.9420

          k = 0.3125 0.5413-0.0673 (  4434 PWs)   bands (ev):

   -28.4184 -13.0982 -11.8812 -11.5669  -7.3956  -2.3325  -1.9244   7.1583
     7.7799

          k = 0.3125 0.6856-0.0673 (  4444 PWs)   bands (ev):

   -28.4382 -13.1313 -12.0652 -11.2526  -7.5059  -2.5290  -1.4605   6.1517
     6.5944

          k = 0.3125-0.3248-0.0673 (  4428 PWs)   bands (ev):

   -28.5219 -13.2670 -12.1718 -10.6066  -7.9326  -2.4700  -0.4524   4.2831
     4.6453

          k = 0.3125-0.1804-0.0673 (  4442 PWs)   bands (ev):

   -28.6194 -13.4288 -11.9295 -10.2764  -8.3467  -1.9348   0.0663   3.0315
     3.3878

          k = 0.4375 0.7578-0.0673 (  4420 PWs)   bands (ev):

   -28.4576 -13.1519 -12.3839 -10.7210  -7.6240  -3.0373  -0.6010   6.4073
     6.6238

          k = 0.4375-0.2526-0.0673 (  4396 PWs)   bands (ev):

   -28.4920 -13.2093 -12.4345 -10.4065  -7.8219  -3.0231  -0.1128   5.1313
     5.5263

          k = 0.1250 0.0000-0.0673 (  4518 PWs)   bands (ev):

   -28.8792 -13.8888 -10.5392  -9.9907  -9.3159   0.2667   0.3515   1.0177
     1.4069

          k =-0.1875 0.1804-0.0673 (  4466 PWs)   bands (ev):

   -28.7413 -13.6478 -11.3496 -10.1697  -8.7704  -0.8955   0.2183   1.9364
     2.3015

          k = 0.2500 0.0722-0.0673 (  4466 PWs)   bands (ev):

   -28.7416 -13.6444 -11.3440 -10.1749  -8.7680  -0.9011   0.1823   1.9378
     2.3038

          k =-0.3125 0.2526-0.0673 (  4438 PWs)   bands (ev):

   -28.5727 -13.3506 -12.0861 -10.3819  -8.1618  -2.2448  -0.0962   3.5713
     3.9278

          k = 0.3750 0.1443-0.0673 (  4438 PWs)   bands (ev):

   -28.5730 -13.3448 -12.0863 -10.3849  -8.1592  -2.2635  -0.0927   3.5710
     3.9286

          k =-0.4375 0.3248-0.0673 (  4394 PWs)   bands (ev):

   -28.4739 -13.1809 -12.4543 -10.4989  -7.7257  -3.1078  -0.2562   5.7762
     6.1960

          k = 0.5000 0.2165-0.0673 (  4394 PWs)   bands (ev):

   -28.4740 -13.1783 -12.4556 -10.4994  -7.7248  -3.1125  -0.2543   5.7741
     6.1972

          k = 0.4375-0.1804-0.0673 (  4416 PWs)   bands (ev):

   -28.5091 -13.2347 -12.3308 -10.4599  -7.8903  -2.8032  -0.1971   4.6260
     5.0010

          k =-0.3750-0.2887-0.0673 (  4416 PWs)   bands (ev):

   -28.5089 -13.2404 -12.3287 -10.4582  -7.8925  -2.7902  -0.2019   4.6268
     5.0001

          k = 0.3125-0.1083-0.0673 (  4460 PWs)   bands (ev):

   -28.6549 -13.4898 -11.7453 -10.2854  -8.4648  -1.5984   0.0420   2.6693
     3.0271

          k =-0.2500-0.2165-0.0673 (  4460 PWs)   bands (ev):

   -28.6546 -13.4945 -11.7482 -10.2813  -8.4674  -1.5792   0.0490   2.6690
     3.0259

          k = 0.1875-0.0361-0.0673 (  4490 PWs)   bands (ev):

   -28.8201 -13.7841 -10.9263 -10.0711  -9.0535  -0.2534   0.2949   1.3850
     1.7633

          k =-0.1250-0.1443-0.0673 (  4490 PWs)   bands (ev):

   -28.8199 -13.7863 -10.9337 -10.0646  -9.0558  -0.2982   0.3988   1.3812
     1.7593

          k = 0.0000-0.0722-0.0673 (  4520 PWs)   bands (ev):

   -28.9107 -13.9452 -10.2634  -9.9372  -9.5265   0.2708   0.7171   0.8184
     1.2265

          k = 0.3750 0.0000-0.0673 (  4450 PWs)   bands (ev):

   -28.5996 -13.3896 -11.8511 -10.5445  -8.2330  -1.8072  -0.3740   3.2142
     3.5690

          k =-0.3125 0.3969-0.0673 (  4428 PWs)   bands (ev):

   -28.4746 -13.1905 -12.1661 -10.9139  -7.6990  -2.5731  -0.9380   5.1543
     5.5369

          k = 0.5000 0.0722-0.0673 (  4428 PWs)   bands (ev):

   -28.4752 -13.1730 -12.1742 -10.9174  -7.6931  -2.6183  -0.9197   5.1526
     5.5394

          k =-0.4375 0.4691-0.0673 (  4432 PWs)   bands (ev):

   -28.4453 -13.1274 -12.2368 -11.0092  -7.5433  -2.8285  -1.0490   6.2798
     6.7440

          k = 0.6250 0.1443-0.0673 (  4432 PWs)   bands (ev):

   -28.4451 -13.1348 -12.2325 -11.0081  -7.5457  -2.8118  -1.0569   6.2842
     6.7403

          k = 0.4375-0.0361-0.0673 (  4450 PWs)   bands (ev):

   -28.5297 -13.2660 -12.0442 -10.7515  -7.9434  -2.2502  -0.6829   4.1089
     4.4690

          k =-0.2500-0.3608-0.0673 (  4450 PWs)   bands (ev):

   -28.5288 -13.2854 -12.0394 -10.7460  -7.9502  -2.1915  -0.6942   4.1095
     4.4667

          k = 0.3125 0.0361-0.0673 (  4452 PWs)   bands (ev):

   -28.6741 -13.5229 -11.6091 -10.3382  -8.5179  -1.3460  -0.0602   2.4876
     2.8464

          k =-0.1250-0.2887-0.0673 (  4452 PWs)   bands (ev):

   -28.6731 -13.5350 -11.6157 -10.3332  -8.5219  -1.3272   0.0267   2.4858
     2.8419

          k = 0.0000-0.2165-0.0673 (  4480 PWs)   bands (ev):

   -28.7921 -13.7410 -11.1030 -10.0840  -8.9569  -0.5787   0.4960   1.5625
     1.9349

          k = 0.6250 0.0000-0.0673 (  4434 PWs)   bands (ev):

   -28.4188 -13.0870 -11.8959 -11.5599  -7.3922  -2.3886  -1.8849   7.1507
     7.7665

          k =-0.4375 0.6134-0.0673 (  4444 PWs)   bands (ev):

   -28.4388 -13.1137 -12.0770 -11.2531  -7.5003  -2.5805  -1.4341   6.1481
     6.5990

          k = 0.7500 0.0722-0.0673 (  4444 PWs)   bands (ev):

   -28.4378 -13.1433 -12.0538 -11.2567  -7.5088  -2.5101  -1.4549   6.1509
     6.5931

          k = 0.4375 0.1083-0.0673 (  4428 PWs)   bands (ev):

   -28.5224 -13.2546 -12.1753 -10.6108  -7.9279  -2.5039  -0.4416   4.2823
     4.6468

          k =-0.1250-0.4330-0.0673 (  4428 PWs)   bands (ev):

   -28.5208 -13.2909 -12.1562 -10.6144  -7.9360  -2.4511  -0.3738   4.2820
     4.6419

          k = 0.0000-0.3608-0.0673 (  4442 PWs)   bands (ev):

   -28.6181 -13.4482 -11.9247 -10.2835  -8.3484  -1.9216   0.2068   3.0291
     3.3823

          k = 0.8750 0.0000-0.0673 (  4420 PWs)   bands (ev):

   -28.4560 -13.2052 -12.3428 -10.7306  -7.6340  -2.9868  -0.5289   6.3947
     6.6049

          k = 0.0000-0.5052-0.0673 (  4396 PWs)   bands (ev):

   -28.4901 -13.2643 -12.3951 -10.4194  -7.8294  -2.9775   0.0160   5.1257
     5.5148

     the Fermi energy is    -5.9111 ev

!    total energy              =     -59.98499489 Ry
     Harris-Foulkes estimate   =     -59.98499489 Ry
     estimated scf accuracy    <          4.0E-10 Ry

     total all-electron energy =      -226.595985 Ry

     The total energy is the sum of the following terms:

     one-electron contribution =    -276.61119526 Ry
     hartree contribution      =     139.87691411 Ry
     xc contribution           =     -11.73961780 Ry
     ewald contribution        =     104.21270374 Ry
     one-center paw contrib.   =     -15.72379969 Ry
     smearing contrib. (-TS)   =      -0.00000000 Ry

     convergence has been achieved in   5 iterations

     Forces acting on atoms (Ry/au):


     negative rho (up, down):  4.849E-04 0.000E+00
     atom    1 type  1   force =     0.00000000   -0.00259055   -0.00147357
     atom    2 type  2   force =     0.00000000    0.00259055    0.00147357

     Total force =     0.004215     Total SCF correction =     0.000065

     number of scf cycles    =   6
[...]
     2.2896

          k =-0.3125 0.2526-0.0673 (  4438 PWs)   bands (ev):

   -28.5665 -13.3593 -12.0825 -10.3871  -8.1868  -2.3062  -0.0156   3.5730
     3.9215

          k = 0.3750 0.1443-0.0673 (  4438 PWs)   bands (ev):

   -28.5665 -13.3591 -12.0825 -10.3872  -8.1867  -2.3067  -0.0155   3.5730
     3.9215

          k =-0.4375 0.3248-0.0673 (  4394 PWs)   bands (ev):

   -28.4680 -13.1746 -12.4625 -10.5052  -7.7423  -3.1807  -0.1910   5.7679
     6.1814

          k = 0.5000 0.2165-0.0673 (  4394 PWs)   bands (ev):

   -28.4680 -13.1745 -12.4625 -10.5052  -7.7423  -3.1809  -0.1909   5.7678
     6.1814

          k = 0.4375-0.1804-0.0673 (  4416 PWs)   bands (ev):

   -28.5029 -13.2401 -12.3315 -10.4642  -7.9124  -2.8607  -0.1306   4.6271
     4.9946

          k =-0.3750-0.2887-0.0673 (  4416 PWs)   bands (ev):

   -28.5029 -13.2402 -12.3315 -10.4642  -7.9124  -2.8603  -0.1307   4.6272
     4.9946

          k = 0.3125-0.1083-0.0673 (  4460 PWs)   bands (ev):

   -28.6481 -13.5105 -11.7402 -10.2855  -8.4970  -1.6257   0.1410   2.6708
     3.0175

          k =-0.2500-0.2165-0.0673 (  4460 PWs)   bands (ev):

   -28.6481 -13.5106 -11.7403 -10.2854  -8.4971  -1.6252   0.1412   2.6708
     3.0174

          k = 0.1875-0.0361-0.0673 (  4490 PWs)   bands (ev):

   -28.8128 -13.8118 -10.9237 -10.0669  -9.0917  -0.2543   0.4924   1.3818
     1.7413

          k =-0.1250-0.1443-0.0673 (  4490 PWs)   bands (ev):

   -28.8128 -13.8119 -10.9239 -10.0667  -9.0918  -0.2555   0.4956   1.3816
     1.7412

          k = 0.0000-0.0722-0.0673 (  4520 PWs)   bands (ev):

   -28.9032 -13.9746 -10.2466  -9.9416  -9.5708   0.5525   0.7141   0.8187
     1.1899

          k = 0.3750 0.0000-0.0673 (  4450 PWs)   bands (ev):

   -28.5930 -13.4091 -11.8479 -10.5407  -8.2643  -1.8189  -0.3430   3.2172
     3.5621

          k =-0.3125 0.3969-0.0673 (  4428 PWs)   bands (ev):

   -28.4691 -13.1804 -12.1720 -10.9170  -7.7147  -2.6545  -0.9384   5.1567
     5.5361

          k = 0.5000 0.0722-0.0673 (  4428 PWs)   bands (ev):

   -28.4692 -13.1799 -12.1722 -10.9171  -7.7145  -2.6558  -0.9379   5.1566
     5.5362

          k =-0.4375 0.4691-0.0673 (  4432 PWs)   bands (ev):

   -28.4396 -13.1251 -12.2386 -11.0112  -7.5593  -2.8859  -1.0676   6.2828
     6.7434

          k = 0.6250 0.1443-0.0673 (  4432 PWs)   bands (ev):

   -28.4396 -13.1253 -12.2385 -11.0112  -7.5594  -2.8855  -1.0678   6.2830
     6.7433

          k = 0.4375-0.0361-0.0673 (  4450 PWs)   bands (ev):

   -28.5233 -13.2803 -12.0408 -10.7488  -7.9704  -2.2707  -0.6864   4.1126
     4.4642

          k =-0.2500-0.3608-0.0673 (  4450 PWs)   bands (ev):

   -28.5233 -13.2809 -12.0407 -10.7487  -7.9706  -2.2691  -0.6867   4.1126
     4.4641

          k = 0.3125 0.0361-0.0673 (  4452 PWs)   bands (ev):

   -28.6671 -13.5458 -11.6057 -10.3347  -8.5520  -1.3571   0.0232   2.4895
     2.8363

          k =-0.1250-0.2887-0.0673 (  4452 PWs)   bands (ev):

   -28.6671 -13.5462 -11.6060 -10.3345  -8.5521  -1.3567   0.0259   2.4895
     2.8361

          k = 0.0000-0.2165-0.0673 (  4480 PWs)   bands (ev):

   -28.7855 -13.7624 -11.0898 -10.0852  -8.9922  -0.5218   0.4788   1.5673
     1.9240

          k = 0.6250 0.0000-0.0673 (  4434 PWs)   bands (ev):

   -28.4135 -13.0788 -11.8924 -11.5668  -7.4034  -2.4236  -1.9707   7.1549
     7.8138

          k =-0.4375 0.6134-0.0673 (  4444 PWs)   bands (ev):

   -28.4331 -13.1143 -12.0744 -11.2546  -7.5167  -2.6159  -1.4923   6.1526
     6.5992

          k = 0.7500 0.0722-0.0673 (  4444 PWs)   bands (ev):

   -28.4331 -13.1152 -12.0738 -11.2546  -7.5169  -2.6140  -1.4928   6.1527
     6.5990

          k = 0.4375 0.1083-0.0673 (  4428 PWs)   bands (ev):

   -28.5161 -13.2659 -12.1728 -10.6113  -7.9531  -2.5441  -0.4112   4.2853
     4.6415

          k =-0.1250-0.4330-0.0673 (  4428 PWs)   bands (ev):

   -28.5160 -13.2669 -12.1723 -10.6114  -7.9534  -2.5426  -0.4091   4.2853
     4.6414

          k = 0.0000-0.3608-0.0673 (  4442 PWs)   bands (ev):

   -28.6128 -13.4453 -11.9236 -10.2804  -8.3757  -1.9803   0.1734   3.0328
     3.3793

          k = 0.8750 0.0000-0.0673 (  4420 PWs)   bands (ev):

   -28.4518 -13.1476 -12.3892 -10.7254  -7.6401  -3.1057  -0.5728   6.4097
     6.5854

          k = 0.0000-0.5052-0.0673 (  4396 PWs)   bands (ev):

   -28.4859 -13.2093 -12.4387 -10.4135  -7.8409  -3.0904  -0.0269   5.1282
     5.5178

     the Fermi energy is    -5.8862 ev

!    total energy              =     -59.98537395 Ry
     Harris-Foulkes estimate   =     -59.98537395 Ry
     estimated scf accuracy    <          2.2E-09 Ry

     total all-electron energy =      -226.596364 Ry

     The total energy is the sum of the following terms:

     one-electron contribution =    -276.25906844 Ry
     hartree contribution      =     139.69685741 Ry
     xc contribution           =     -11.73618086 Ry
     ewald contribution        =     104.03679713 Ry
     one-center paw contrib.   =     -15.72377920 Ry
     smearing contrib. (-TS)   =      -0.00000000 Ry

     convergence has been achieved in   5 iterations

     Forces acting on atoms (Ry/au):


     negative rho (up, down):  4.753E-04 0.000E+00
     atom    1 type  1   force =     0.00000000   -0.00043216    0.00454569
     atom    2 type  2   force =     0.00000000    0.00043216   -0.00454569

     Total force =     0.006458     Total SCF correction =     0.000069

     number of scf cycles    =  12
     number of bfgs steps    =  10

     energy   old            =     -59.9853474824 Ry
     energy   new            =     -59.9853739529 Ry

     CASE: energy  _new < energy  _old

     new trust radius        =       0.0111137180 bohr
     new conv_thr            =       0.0000000100 Ry


ATOMIC_POSITIONS (alat)
C        0.500000000   0.261738358   3.071938806
O        0.500001000   0.256611642   3.466638194



     Writing output data file CO_hollow.save
     Check: negative starting charge=   -0.000322
     NEW-OLD atomic charge density approx. for the potential

     Check: negative/imaginary core charge=   -0.000003    0.000000
     Check: negative starting charge=   -0.000321

     negative rho (up, down):  4.746E-04 0.000E+00

     total cpu time spent up to now is     1982.1 secs

     per-process dynamical memory:    79.8 Mb

     Self-consistent Calculation

     iteration #  1     ecut=    40.00 Ry     beta=0.70
     Davidson diagonalization with overlap
     ethr =  1.00E-06,  avg # of iterations =  3.3

     negative rho (up, down):  4.748E-04 0.000E+00

     total cpu time spent up to now is     2014.8 secs

     total energy              =     -59.98537920 Ry
     Harris-Foulkes estimate   =     -59.98548480 Ry
     estimated scf accuracy    <       0.00004004 Ry

     iteration #  2     ecut=    40.00 Ry     beta=0.70
     Davidson diagonalization with overlap
     ethr =  4.00E-07,  avg # of iterations =  1.0

     negative rho (up, down):  4.748E-04 0.000E+00

     total cpu time spent up to now is     2033.5 secs

     total energy              =     -59.98538206 Ry
     Harris-Foulkes estimate   =     -59.98538416 Ry
     estimated scf accuracy    <       0.00000342 Ry

     iteration #  3     ecut=    40.00 Ry     beta=0.70
     Davidson diagonalization with overlap
     ethr =  3.42E-08,  avg # of iterations =  2.0

     negative rho (up, down):  4.744E-04 0.000E+00

     total cpu time spent up to now is     2058.8 secs

     total energy              =     -59.98538132 Ry
     Harris-Foulkes estimate   =     -59.98538617 Ry
     estimated scf accuracy    <       0.00001433 Ry

     iteration #  4     ecut=    40.00 Ry     beta=0.70
     Davidson diagonalization with overlap
     ethr =  3.42E-08,  avg # of iterations =  2.0

     negative rho (up, down):  4.747E-04 0.000E+00

     total cpu time spent up to now is     2081.5 secs

     total energy              =     -59.98538368 Ry
     Harris-Foulkes estimate   =     -59.98538372 Ry
     estimated scf accuracy    <       0.00000016 Ry

     iteration #  5     ecut=    40.00 Ry     beta=0.70
     Davidson diagonalization with overlap
     ethr =  1.63E-09,  avg # of iterations =  1.9

     negative rho (up, down):  4.748E-04 0.000E+00

     total cpu time spent up to now is     2102.7 secs

     End of self-consistent calculation

          k = 0.0625 0.1083-0.0673 (  4518 PWs)   bands (ev):

   -28.8862 -13.9183 -10.5441  -9.9954  -9.3602   0.2734   0.6489   1.0052
     1.3741

          k = 0.0625 0.2526-0.0673 (  4466 PWs)   bands (ev):

   -28.7492 -13.6700 -11.3483 -10.1831  -8.8043  -0.9045   0.3340   1.9357
     2.2906

          k = 0.0625 0.3969-0.0673 (  4438 PWs)   bands (ev):

   -28.5815 -13.3602 -12.0910 -10.3975  -8.1855  -2.2987  -0.0027   3.5703
     3.9231

          k = 0.0625 0.5413-0.0673 (  4394 PWs)   bands (ev):

   -28.4830 -13.1761 -12.4708 -10.5156  -7.7400  -3.1735  -0.1785   5.7646
     6.1833

          k = 0.0625-0.4691-0.0673 (  4416 PWs)   bands (ev):

   -28.5179 -13.2415 -12.3399 -10.4746  -7.9105  -2.8530  -0.1181   4.6242
     4.9967

          k = 0.0625-0.3248-0.0673 (  4460 PWs)   bands (ev):

   -28.6629 -13.5114 -11.7489 -10.2958  -8.4966  -1.6173   0.1544   2.6684
     3.0187

          k = 0.0625-0.1804-0.0673 (  4490 PWs)   bands (ev):

   -28.8274 -13.8121 -10.9320 -10.0772  -9.0935  -0.2459   0.5091   1.3796
     1.7418

          k = 0.0625-0.0361-0.0673 (  4520 PWs)   bands (ev):

   -28.9176 -13.9747 -10.2534  -9.9524  -9.5748   0.5710   0.7205   0.8187
     1.1895

          k = 0.1875 0.3248-0.0673 (  4450 PWs)   bands (ev):

   -28.6078 -13.4101 -11.8566 -10.5506  -8.2634  -1.8099  -0.3323   3.2146
     3.5637

          k = 0.1875 0.4691-0.0673 (  4428 PWs)   bands (ev):

   -28.4842 -13.1813 -12.1807 -10.9268  -7.7124  -2.6475  -0.9285   5.1536
     5.5385

          k = 0.1875 0.6134-0.0673 (  4432 PWs)   bands (ev):

   -28.4547 -13.1266 -12.2471 -11.0210  -7.5569  -2.8782  -1.0582   6.2796
     6.7459

          k = 0.1875-0.3969-0.0673 (  4450 PWs)   bands (ev):

   -28.5383 -13.2816 -12.0495 -10.7587  -7.9689  -2.2619  -0.6766   4.1098
     4.4661

          k = 0.1875-0.2526-0.0673 (  4452 PWs)   bands (ev):

   -28.6819 -13.5466 -11.6145 -10.3448  -8.5519  -1.3481   0.0354   2.4871
     2.8375

          k = 0.1875-0.1083-0.0673 (  4480 PWs)   bands (ev):

   -28.8001 -13.7626 -11.0979 -10.0957  -8.9934  -0.5106   0.4868   1.5654
     1.9249

          k = 0.3125 0.5413-0.0673 (  4434 PWs)   bands (ev):

   -28.4286 -13.0799 -11.9012 -11.5763  -7.4006  -2.4151  -1.9638   7.1513
     7.8188

          k = 0.3125 0.6856-0.0673 (  4444 PWs)   bands (ev):

   -28.4482 -13.1156 -12.0831 -11.2641  -7.5142  -2.6076  -1.4845   6.1494
     6.6019

          k = 0.3125-0.3248-0.0673 (  4428 PWs)   bands (ev):

   -28.5311 -13.2670 -12.1815 -10.6213  -7.9514  -2.5360  -0.4008   4.2825
     4.6435

          k = 0.3125-0.1804-0.0673 (  4442 PWs)   bands (ev):

   -28.6277 -13.4455 -11.9323 -10.2907  -8.3747  -1.9728   0.1814   3.0304
     3.3810

          k = 0.4375 0.7578-0.0673 (  4420 PWs)   bands (ev):

   -28.4669 -13.1470 -12.3992 -10.7352  -7.6374  -3.1001  -0.5648   6.4068
     6.5841

          k = 0.4375-0.2526-0.0673 (  4396 PWs)   bands (ev):

   -28.5010 -13.2086 -12.4486 -10.4235  -7.8385  -3.0846  -0.0189   5.1253
     5.5205

          k = 0.1250 0.0000-0.0673 (  4518 PWs)   bands (ev):

   -28.8862 -13.9182 -10.5440  -9.9955  -9.3601   0.2750   0.6463   1.0055
     1.3742

          k =-0.1875 0.1804-0.0673 (  4466 PWs)   bands (ev):

   -28.7492 -13.6699 -11.3483 -10.1831  -8.8043  -0.9041   0.3327   1.9358
     2.2906

          k = 0.2500 0.0722-0.0673 (  4466 PWs)   bands (ev):

   -28.7492 -13.6699 -11.3482 -10.1831  -8.8042  -0.9042   0.3324   1.9358
     2.2906

          k =-0.3125 0.2526-0.0673 (  4438 PWs)   bands (ev):

   -28.5815 -13.3600 -12.0911 -10.3974  -8.1855  -2.2988  -0.0039   3.5703
     3.9232

          k = 0.3750 0.1443-0.0673 (  4438 PWs)   bands (ev):

   -28.5815 -13.3600 -12.0911 -10.3975  -8.1854  -2.2989  -0.0039   3.5703
     3.9232

          k =-0.4375 0.3248-0.0673 (  4394 PWs)   bands (ev):

   -28.4831 -13.1755 -12.4712 -10.5155  -7.7399  -3.1738  -0.1796   5.7647
     6.1835

          k = 0.5000 0.2165-0.0673 (  4394 PWs)   bands (ev):

   -28.4831 -13.1755 -12.4712 -10.5155  -7.7399  -3.1739  -0.1796   5.7647
     6.1836

          k = 0.4375-0.1804-0.0673 (  4416 PWs)   bands (ev):

   -28.5179 -13.2410 -12.3402 -10.4745  -7.9104  -2.8534  -0.1192   4.6242
     4.9967

          k =-0.3750-0.2887-0.0673 (  4416 PWs)   bands (ev):

   -28.5179 -13.2411 -12.3402 -10.4745  -7.9104  -2.8532  -0.1192   4.6242
     4.9967

          k = 0.3125-0.1083-0.0673 (  4460 PWs)   bands (ev):

   -28.6629 -13.5112 -11.7488 -10.2958  -8.4966  -1.6174   0.1531   2.6684
     3.0188

          k =-0.2500-0.2165-0.0673 (  4460 PWs)   bands (ev):

   -28.6629 -13.5113 -11.7489 -10.2958  -8.4966  -1.6172   0.1532   2.6684
     3.0188

          k = 0.1875-0.0361-0.0673 (  4490 PWs)   bands (ev):

   -28.8274 -13.8121 -10.9319 -10.0773  -9.0935  -0.2449   0.5071   1.3797
     1.7418

          k =-0.1250-0.1443-0.0673 (  4490 PWs)   bands (ev):

   -28.8274 -13.8121 -10.9320 -10.0772  -9.0935  -0.2454   0.5082   1.3797
     1.7418

          k = 0.0000-0.0722-0.0673 (  4520 PWs)   bands (ev):

   -28.9176 -13.9747 -10.2534  -9.9522  -9.5748   0.5685   0.7243   0.8178
     1.1894

          k = 0.3750 0.0000-0.0673 (  4450 PWs)   bands (ev):

   -28.6078 -13.4100 -11.8566 -10.5507  -8.2634  -1.8102  -0.3326   3.2146
     3.5637

          k =-0.3125 0.3969-0.0673 (  4428 PWs)   bands (ev):

   -28.4842 -13.1812 -12.1808 -10.9268  -7.7124  -2.6476  -0.9289   5.1536
     5.5385

          k = 0.5000 0.0722-0.0673 (  4428 PWs)   bands (ev):

   -28.4842 -13.1810 -12.1809 -10.9269  -7.7123  -2.6480  -0.9288   5.1536
     5.5386

          k =-0.4375 0.4691-0.0673 (  4432 PWs)   bands (ev):

   -28.4547 -13.1262 -12.2474 -11.0210  -7.5568  -2.8786  -1.0585   6.2796
     6.7460

          k = 0.6250 0.1443-0.0673 (  4432 PWs)   bands (ev):

   -28.4547 -13.1262 -12.2474 -11.0210  -7.5568  -2.8785  -1.0586   6.2796
     6.7460

          k = 0.4375-0.0361-0.0673 (  4450 PWs)   bands (ev):

   -28.5383 -13.2814 -12.0495 -10.7587  -7.9688  -2.2624  -0.6769   4.1098
     4.4661

          k =-0.2500-0.3608-0.0673 (  4450 PWs)   bands (ev):

   -28.5383 -13.2816 -12.0495 -10.7587  -7.9689  -2.2619  -0.6769   4.1098
     4.4661

          k = 0.3125 0.0361-0.0673 (  4452 PWs)   bands (ev):

   -28.6819 -13.5465 -11.6144 -10.3449  -8.5518  -1.3483   0.0350   2.4872
     2.8375

          k =-0.1250-0.2887-0.0673 (  4452 PWs)   bands (ev):

   -28.6819 -13.5466 -11.6145 -10.3448  -8.5519  -1.3483   0.0359   2.4871
     2.8375

          k = 0.0000-0.2165-0.0673 (  4480 PWs)   bands (ev):

   -28.8001 -13.7627 -11.0980 -10.0957  -8.9935  -0.5113   0.4886   1.5654
     1.9249

          k = 0.6250 0.0000-0.0673 (  4434 PWs)   bands (ev):

   -28.4286 -13.0798 -11.9013 -11.5762  -7.4005  -2.4155  -1.9636   7.1512
     7.8190

          k =-0.4375 0.6134-0.0673 (  4444 PWs)   bands (ev):

   -28.4482 -13.1155 -12.0832 -11.2641  -7.5141  -2.6080  -1.4843   6.1493
     6.6019

          k = 0.7500 0.0722-0.0673 (  4444 PWs)   bands (ev):

   -28.4482 -13.1157 -12.0830 -11.2641  -7.5142  -2.6075  -1.4844   6.1494
     6.6018

          k = 0.4375 0.1083-0.0673 (  4428 PWs)   bands (ev):

   -28.5311 -13.2669 -12.1815 -10.6214  -7.9514  -2.5363  -0.4007   4.2825
     4.6435

          k =-0.1250-0.4330-0.0673 (  4428 PWs)   bands (ev):

   -28.5311 -13.2672 -12.1813 -10.6214  -7.9515  -2.5359  -0.4000   4.2824
     4.6435

          k = 0.0000-0.3608-0.0673 (  4442 PWs)   bands (ev):

   -28.6277 -13.4457 -11.9323 -10.2907  -8.3748  -1.9727   0.1828   3.0303
     3.3809

          k = 0.8750 0.0000-0.0673 (  4420 PWs)   bands (ev):

   -28.4669 -13.1475 -12.3989 -10.7353  -7.6375  -3.0997  -0.5640   6.4069
     6.5837

          k = 0.0000-0.5052-0.0673 (  4396 PWs)   bands (ev):

   -28.5010 -13.2091 -12.4483 -10.4236  -7.8386  -3.0843  -0.0176   5.1253
     5.5204

     the Fermi energy is    -5.8892 ev

!    total energy              =     -59.98538371 Ry
     Harris-Foulkes estimate   =     -59.98538371 Ry
     estimated scf accuracy    <          1.9E-09 Ry

     total all-electron energy =      -226.596374 Ry

     The total energy is the sum of the following terms:

     one-electron contribution =    -276.30055497 Ry
     hartree contribution      =     139.71620982 Ry
     xc contribution           =     -11.73798726 Ry
     ewald contribution        =     104.06069671 Ry
     one-center paw contrib.   =     -15.72374801 Ry
     smearing contrib. (-TS)   =      -0.00000000 Ry

     convergence has been achieved in   5 iterations

     Forces acting on atoms (Ry/au):


     negative rho (up, down):  4.748E-04 0.000E+00
     atom    1 type  1   force =     0.00000000   -0.00014978    0.00037461
     atom    2 type  2   force =     0.00000000    0.00014978   -0.00037461

     Total force =     0.000571     Total SCF correction =     0.000073
     SCF correction compared to forces is large: reduce conv_thr to get better values

     bfgs converged in  13 scf cycles and  11 bfgs steps
     (criteria: energy <  1.0E-04, force <  1.0E-03)

     End of BFGS Geometry Optimization

     Final energy   =     -59.9853837055 Ry
Begin final coordinates

ATOMIC_POSITIONS (alat)
C        0.500000000   0.261738358   3.071938806
O        0.500001000   0.256611642   3.466638194
End final coordinates



     Writing output data file CO_hollow.save

     init_run     :      6.93s CPU     14.89s WALL (       1 calls)
     electrons    :    925.90s CPU   1975.19s WALL (      13 calls)
     update_pot   :     17.53s CPU     40.32s WALL (      12 calls)
     forces       :     26.55s CPU     55.41s WALL (      13 calls)

     Called by init_run:
     wfcinit      :      4.35s CPU      9.13s WALL (       1 calls)
     potinit      :      0.78s CPU      1.53s WALL (       1 calls)

     Called by electrons:
     c_bands      :    750.53s CPU   1603.70s WALL (      69 calls)
     sum_band     :    132.29s CPU    279.84s WALL (      69 calls)
     v_of_rho     :     17.68s CPU     38.16s WALL (      79 calls)
     newd         :     19.46s CPU     40.35s WALL (      79 calls)
     mix_rho      :      1.26s CPU      2.63s WALL (      69 calls)

     Called by c_bands:
     init_us_2    :     21.64s CPU     42.27s WALL (    8528 calls)
     cegterg      :    720.76s CPU   1546.44s WALL (    3588 calls)

     Called by *egterg:
     h_psi        :    587.49s CPU   1205.09s WALL (   11661 calls)
     s_psi        :     11.98s CPU     25.06s WALL (   11661 calls)
     g_psi        :      2.12s CPU      3.62s WALL (    8021 calls)
     cdiaghg      :     65.85s CPU    219.61s WALL (   10829 calls)

     Called by h_psi:
     add_vuspsi   :     11.48s CPU     23.43s WALL (   11661 calls)

     General routines
     calbec       :     22.64s CPU     52.68s WALL (   16549 calls)
     fft          :      7.97s CPU     16.56s WALL (    1379 calls)
     ffts         :      0.45s CPU      0.93s WALL (     148 calls)
     fftw         :    527.22s CPU   1089.30s WALL (  195112 calls)
     interpolate  :      1.66s CPU      3.23s WALL (     148 calls)
     davcio       :      0.02s CPU      0.02s WALL (      52 calls)

     Parallel routines
     fft_scatter  :     60.57s CPU    121.96s WALL (  196639 calls)

     PAW routines
     PAW_pot      :     13.02s CPU     28.62s WALL (      91 calls)
     PAW_symme    :      0.00s CPU      0.00s WALL (     160 calls)

     PWSCF        : 16m26.93s CPU    35m 6.56s WALL


   This run was terminated on:   5:16: 1  18Jun2018            

=------------------------------------------------------------------------------=
   JOB DONE.
=------------------------------------------------------------------------------=
