
     Program PWSCF v.5.1 starts on 18Jun2018 at 14:22:47 

     This program is part of the open-source Quantum ESPRESSO suite
     for quantum simulation of materials; please cite
         "P. Giannozzi et al., J. Phys.:Condens. Matter 21 395502 (2009);
          URL http://www.quantum-espresso.org", 
     in publications or presentations arising from this work. More details at
     http://www.quantum-espresso.org/quote

     Parallel version (MPI), running on     1 processors
     Waiting for input...
     Reading input from standard input
Warning: card &IONS ignored
Warning: card / ignored
Warning: card &CELL ignored
Warning: card / ignored

     Current dimensions of program PWSCF are:
     Max number of different atomic species (ntypx) = 10
     Max number of k-points (npk) =  40000
     Max angular momentum in pseudopotentials (lmaxx) =  3
               file C.pbe-n-kjpaw_psl.1.0.0.UPF: wavefunction(s)  2S 2P renormalized
               file O.pbe-n-kjpaw_psl.0.1.U: wavefunction(s)  2P renormalized

     Subspace diagonalization in iterative solution of the eigenvalue problem:
     a serial algorithm will be used


     G-vector sticks info
     --------------------
     sticks:   dense  smooth     PW     G-vecs:    dense   smooth      PW
     Sum         649     313    109               100611    35335    6935



     bravais-lattice index     =            4
     lattice parameter (alat)  =       5.4490  a.u.
     unit-cell volume          =    1040.6255 (a.u.)^3
     number of atoms/cell      =            2
     number of atomic types    =            2
     number of electrons       =        10.00
     number of Kohn-Sham states=            9
     kinetic-energy cutoff     =      40.0000  Ry
     charge density cutoff     =     320.0000  Ry
     convergence threshold     =      1.0E-06
     mixing beta               =       0.7000
     number of iterations used =            8  plain     mixing
     Exchange-correlation      =  SLA  PW   PBX  PBC ( 1  4  3  4 0)

     celldm(1)=   5.449000  celldm(2)=   0.000000  celldm(3)=   7.427000
     celldm(4)=   0.000000  celldm(5)=   0.000000  celldm(6)=   0.000000

     crystal axes: (cart. coord. in units of alat)
               a(1) = (   1.000000   0.000000   0.000000 )  
               a(2) = (  -0.500000   0.866025   0.000000 )  
               a(3) = (   0.000000   0.000000   7.427000 )  

     reciprocal axes: (cart. coord. in units 2 pi/alat)
               b(1) = (  1.000000  0.577350 -0.000000 )  
               b(2) = (  0.000000  1.154701  0.000000 )  
               b(3) = (  0.000000 -0.000000  0.134644 )  


     PseudoPot. # 1 for  C read from file:
     /home/oropebuen/Documents/Job/Absortion/SSSP_efficiency_pseudos/C.pbe-n-kjpaw_psl.1.0.0.UPF
     MD5 check sum: 8e281b34a927efac7e739263a90d7aed
     Pseudo is Projector augmented-wave + core cor, Zval =  4.0
     Generated using "atomic" code by A. Dal Corso  v.5.1
     Shape of augmentation charge: PSQ
     Using radial grid of 1073 points,  4 beta functions with: 
                l(1) =   0
                l(2) =   0
                l(3) =   1
                l(4) =   1
     Q(r) pseudized with 0 coefficients 


     PseudoPot. # 2 for  O read from file:
     /home/oropebuen/Documents/Job/Absortion/SSSP_efficiency_pseudos/O.pbe-n-kjpaw_psl.0.1.U
     MD5 check sum: 3f94a2996a3169367d6eb21d9b593f20
     Pseudo is Projector augmented-wave + core cor, Zval =  6.0
     Generated using "atomic" code by A. Dal Corso  v.5.0.99 svn rev. 10869
     Shape of augmentation charge: BESSEL
     Using radial grid of 1095 points,  4 beta functions with: 
                l(1) =   0
                l(2) =   0
                l(3) =   1
                l(4) =   1
     Q(r) pseudized with 0 coefficients 


     atomic species   valence    mass     pseudopotential
        C              4.00    12.01070      C( 1.00)
        O              6.00    15.99940      O( 1.00)

      2 Sym. Ops. (no inversion) found



   Cartesian axes

     site n.     atom                  positions (alat units)
         1           C   tau(   1) = (   0.5000000   0.2617384   3.0719388  )
         2           O   tau(   2) = (   0.5000010   0.2566116   3.4666382  )

     number of k points=    52  gaussian smearing, width (Ry)=  0.0100
                       cart. coord. in units 2pi/alat
        k(    1) = (   0.0625000   0.1082532  -0.0673219), wk =   0.0416667
        k(    2) = (   0.0625000   0.2525907  -0.0673219), wk =   0.0416667
        k(    3) = (   0.0625000   0.3969283  -0.0673219), wk =   0.0416667
        k(    4) = (   0.0625000   0.5412659  -0.0673219), wk =   0.0416667
        k(    5) = (   0.0625000  -0.4690971  -0.0673219), wk =   0.0416667
        k(    6) = (   0.0625000  -0.3247595  -0.0673219), wk =   0.0416667
        k(    7) = (   0.0625000  -0.1804220  -0.0673219), wk =   0.0416667
        k(    8) = (   0.0625000  -0.0360844  -0.0673219), wk =   0.0416667
        k(    9) = (   0.1875000   0.3247595  -0.0673219), wk =   0.0416667
        k(   10) = (   0.1875000   0.4690971  -0.0673219), wk =   0.0416667
        k(   11) = (   0.1875000   0.6134347  -0.0673219), wk =   0.0416667
        k(   12) = (   0.1875000  -0.3969283  -0.0673219), wk =   0.0416667
        k(   13) = (   0.1875000  -0.2525907  -0.0673219), wk =   0.0416667
        k(   14) = (   0.1875000  -0.1082532  -0.0673219), wk =   0.0416667
        k(   15) = (   0.3125000   0.5412659  -0.0673219), wk =   0.0416667
        k(   16) = (   0.3125000   0.6856034  -0.0673219), wk =   0.0416667
        k(   17) = (   0.3125000  -0.3247595  -0.0673219), wk =   0.0416667
        k(   18) = (   0.3125000  -0.1804220  -0.0673219), wk =   0.0416667
        k(   19) = (   0.4375000   0.7577722  -0.0673219), wk =   0.0416667
        k(   20) = (   0.4375000  -0.2525907  -0.0673219), wk =   0.0416667
        k(   21) = (   0.1250000   0.0000000  -0.0673219), wk =   0.0208333
        k(   22) = (  -0.1875000   0.1804220  -0.0673219), wk =   0.0416667
        k(   23) = (   0.2500000   0.0721688  -0.0673219), wk =   0.0416667
        k(   24) = (  -0.3125000   0.2525907  -0.0673219), wk =   0.0416667
        k(   25) = (   0.3750000   0.1443376  -0.0673219), wk =   0.0416667
        k(   26) = (  -0.4375000   0.3247595  -0.0673219), wk =   0.0416667
        k(   27) = (   0.5000000   0.2165064  -0.0673219), wk =   0.0416667
        k(   28) = (   0.4375000  -0.1804220  -0.0673219), wk =   0.0416667
        k(   29) = (  -0.3750000  -0.2886751  -0.0673219), wk =   0.0416667
        k(   30) = (   0.3125000  -0.1082532  -0.0673219), wk =   0.0416667
        k(   31) = (  -0.2500000  -0.2165064  -0.0673219), wk =   0.0416667
        k(   32) = (   0.1875000  -0.0360844  -0.0673219), wk =   0.0416667
        k(   33) = (  -0.1250000  -0.1443376  -0.0673219), wk =   0.0416667
        k(   34) = (   0.0000000  -0.0721688  -0.0673219), wk =   0.0208333
        k(   35) = (   0.3750000   0.0000000  -0.0673219), wk =   0.0208333
        k(   36) = (  -0.3125000   0.3969283  -0.0673219), wk =   0.0416667
        k(   37) = (   0.5000000   0.0721688  -0.0673219), wk =   0.0416667
        k(   38) = (  -0.4375000   0.4690971  -0.0673219), wk =   0.0416667
        k(   39) = (   0.6250000   0.1443376  -0.0673219), wk =   0.0416667
        k(   40) = (   0.4375000  -0.0360844  -0.0673219), wk =   0.0416667
        k(   41) = (  -0.2500000  -0.3608439  -0.0673219), wk =   0.0416667
        k(   42) = (   0.3125000   0.0360844  -0.0673219), wk =   0.0416667
        k(   43) = (  -0.1250000  -0.2886751  -0.0673219), wk =   0.0416667
        k(   44) = (   0.0000000  -0.2165064  -0.0673219), wk =   0.0208333
        k(   45) = (   0.6250000   0.0000000  -0.0673219), wk =   0.0208333
        k(   46) = (  -0.4375000   0.6134347  -0.0673219), wk =   0.0416667
        k(   47) = (   0.7500000   0.0721688  -0.0673219), wk =   0.0416667
        k(   48) = (   0.4375000   0.1082532  -0.0673219), wk =   0.0416667
        k(   49) = (  -0.1250000  -0.4330127  -0.0673219), wk =   0.0416667
        k(   50) = (   0.0000000  -0.3608439  -0.0673219), wk =   0.0208333
        k(   51) = (   0.8750000   0.0000000  -0.0673219), wk =   0.0208333
        k(   52) = (   0.0000000  -0.5051815  -0.0673219), wk =   0.0208333

     Dense  grid:   100611 G-vectors     FFT dimensions: (  32,  32, 240)

     Smooth grid:    35335 G-vectors     FFT dimensions: (  24,  24, 180)

     Largest allocated arrays     est. size (Mb)     dimensions
        Kohn-Sham Wavefunctions         0.62 Mb     (    4520,    9)
        NL pseudopotentials             1.10 Mb     (    4520,   16)
        Each V/rho on FFT grid          3.75 Mb     (  245760)
        Each G-vector array             0.77 Mb     (  100611)
        G-vector shells                 0.04 Mb     (    4911)
     Largest temporary arrays     est. size (Mb)     dimensions
        Auxiliary wavefunctions         2.48 Mb     (    4520,   36)
        Each subspace H/S matrix        0.02 Mb     (      36,   36)
        Each <psi_i|beta_j> matrix      0.00 Mb     (      16,    9)
        Arrays for rho mixing          30.00 Mb     (  245760,    8)

     Check: negative/imaginary core charge=   -0.000003    0.000000

     Initial potential from superposition of free atoms
     Check: negative starting charge=   -0.000321

     starting charge    9.99996, renormalised to   10.00000

     negative rho (up, down):  3.211E-04 0.000E+00
     Starting wfc are    8 randomized atomic wfcs +    1 random wfc
     Checking if some PAW data can be deallocated... 

     total cpu time spent up to now is        6.8 secs

     per-process dynamical memory:    82.0 Mb

     Self-consistent Calculation

     iteration #  1     ecut=    40.00 Ry     beta=0.70
     Davidson diagonalization with overlap
     ethr =  1.00E-02,  avg # of iterations =  6.0

     negative rho (up, down):  4.557E-04 0.000E+00

     total cpu time spent up to now is       25.1 secs

     total energy              =     -59.92507605 Ry
     Harris-Foulkes estimate   =     -60.04699078 Ry
     estimated scf accuracy    <       0.18315400 Ry

     iteration #  2     ecut=    40.00 Ry     beta=0.70
     Davidson diagonalization with overlap
     ethr =  1.83E-03,  avg # of iterations =  2.2

     negative rho (up, down):  4.815E-04 0.000E+00

     total cpu time spent up to now is       37.2 secs

     total energy              =     -59.86361736 Ry
     Harris-Foulkes estimate   =     -60.06953494 Ry
     estimated scf accuracy    <       0.52982711 Ry

     iteration #  3     ecut=    40.00 Ry     beta=0.70
     Davidson diagonalization with overlap
     ethr =  1.83E-03,  avg # of iterations =  2.1

     negative rho (up, down):  4.623E-04 0.000E+00

     total cpu time spent up to now is       48.6 secs

     total energy              =     -59.97808815 Ry
     Harris-Foulkes estimate   =     -59.99706257 Ry
     estimated scf accuracy    <       0.06045869 Ry

     iteration #  4     ecut=    40.00 Ry     beta=0.70
     Davidson diagonalization with overlap
     ethr =  6.05E-04,  avg # of iterations =  1.2

     negative rho (up, down):  4.774E-04 0.000E+00

     total cpu time spent up to now is       59.4 secs

     total energy              =     -59.98503782 Ry
     Harris-Foulkes estimate   =     -59.98541153 Ry
     estimated scf accuracy    <       0.00114231 Ry

     iteration #  5     ecut=    40.00 Ry     beta=0.70
     Davidson diagonalization with overlap
     ethr =  1.14E-05,  avg # of iterations =  7.0

     negative rho (up, down):  4.754E-04 0.000E+00

     total cpu time spent up to now is       76.3 secs

     total energy              =     -59.98537804 Ry
     Harris-Foulkes estimate   =     -59.98539327 Ry
     estimated scf accuracy    <       0.00005550 Ry

     iteration #  6     ecut=    40.00 Ry     beta=0.70
     Davidson diagonalization with overlap
     ethr =  5.55E-07,  avg # of iterations =  1.6

     negative rho (up, down):  4.749E-04 0.000E+00

     total cpu time spent up to now is       86.9 secs

     total energy              =     -59.98538311 Ry
     Harris-Foulkes estimate   =     -59.98538373 Ry
     estimated scf accuracy    <       0.00000215 Ry

     iteration #  7     ecut=    40.00 Ry     beta=0.70
     Davidson diagonalization with overlap
     ethr =  2.15E-08,  avg # of iterations =  2.6

     negative rho (up, down):  4.749E-04 0.000E+00

     total cpu time spent up to now is       97.8 secs

     End of self-consistent calculation

          k = 0.0625 0.1083-0.0673 (  4518 PWs)   bands (ev):

   -28.8872 -13.9193 -10.5447  -9.9965  -9.3599   0.2738   0.6493   1.0044
     1.3750

          k = 0.0625 0.2526-0.0673 (  4466 PWs)   bands (ev):

   -28.7502 -13.6711 -11.3491 -10.1842  -8.8036  -0.9041   0.3344   1.9347
     2.2914

          k = 0.0625 0.3969-0.0673 (  4438 PWs)   bands (ev):

   -28.5825 -13.3615 -12.0918 -10.3985  -8.1845  -2.2984  -0.0023   3.5691
     3.9242

          k = 0.0625 0.5413-0.0673 (  4394 PWs)   bands (ev):

   -28.4841 -13.1774 -12.4717 -10.5166  -7.7388  -3.1733  -0.1781   5.7634
     6.1844

          k = 0.0625-0.4691-0.0673 (  4416 PWs)   bands (ev):

   -28.5189 -13.2428 -12.3408 -10.4756  -7.9094  -2.8528  -0.1177   4.6229
     4.9978

          k = 0.0625-0.3248-0.0673 (  4460 PWs)   bands (ev):

   -28.6639 -13.5126 -11.7497 -10.2969  -8.4958  -1.6170   0.1549   2.6673
     3.0197

          k = 0.0625-0.1804-0.0673 (  4490 PWs)   bands (ev):

   -28.8284 -13.8133 -10.9327 -10.0783  -9.0930  -0.2455   0.5096   1.3787
     1.7426

          k = 0.0625-0.0361-0.0673 (  4520 PWs)   bands (ev):

   -28.9186 -13.9758 -10.2538  -9.9535  -9.5746   0.5714   0.7209   0.8179
     1.1903

          k = 0.1875 0.3248-0.0673 (  4450 PWs)   bands (ev):

   -28.6088 -13.4114 -11.8574 -10.5517  -8.2625  -1.8095  -0.3319   3.2134
     3.5647

          k = 0.1875 0.4691-0.0673 (  4428 PWs)   bands (ev):

   -28.4852 -13.1827 -12.1816 -10.9278  -7.7112  -2.6472  -0.9282   5.1522
     5.5397

          k = 0.1875 0.6134-0.0673 (  4432 PWs)   bands (ev):

   -28.4557 -13.1279 -12.2480 -11.0220  -7.5556  -2.8780  -1.0579   6.2784
     6.7470

          k = 0.1875-0.3969-0.0673 (  4450 PWs)   bands (ev):

   -28.5393 -13.2829 -12.0503 -10.7597  -7.9679  -2.2616  -0.6763   4.1085
     4.4672

          k = 0.1875-0.2526-0.0673 (  4452 PWs)   bands (ev):

   -28.6829 -13.5478 -11.6152 -10.3458  -8.5511  -1.3478   0.0358   2.4860
     2.8385

          k = 0.1875-0.1083-0.0673 (  4480 PWs)   bands (ev):

   -28.8011 -13.7638 -11.0986 -10.0968  -8.9929  -0.5102   0.4872   1.5644
     1.9258

          k = 0.3125 0.5413-0.0673 (  4434 PWs)   bands (ev):

   -28.4296 -13.0813 -11.9021 -11.5772  -7.3992  -2.4149  -1.9636   7.1502
     7.8196

          k = 0.3125 0.6856-0.0673 (  4444 PWs)   bands (ev):

   -28.4493 -13.1170 -12.0840 -11.2650  -7.5129  -2.6074  -1.4842   6.1481
     6.6030

          k = 0.3125-0.3248-0.0673 (  4428 PWs)   bands (ev):

   -28.5321 -13.2683 -12.1823 -10.6223  -7.9504  -2.5358  -0.4004   4.2812
     4.6447

          k = 0.3125-0.1804-0.0673 (  4442 PWs)   bands (ev):

   -28.6287 -13.4468 -11.9331 -10.2918  -8.3738  -1.9725   0.1818   3.0292
     3.3820

          k = 0.4375 0.7578-0.0673 (  4420 PWs)   bands (ev):

   -28.4679 -13.1483 -12.4001 -10.7362  -7.6361  -3.1000  -0.5644   6.4059
     6.5833

          k = 0.4375-0.2526-0.0673 (  4396 PWs)   bands (ev):

   -28.5020 -13.2099 -12.4494 -10.4246  -7.8373  -3.0845  -0.0185   5.1240
     5.5217

          k = 0.1250 0.0000-0.0673 (  4518 PWs)   bands (ev):

   -28.8872 -13.9193 -10.5446  -9.9966  -9.3599   0.2754   0.6468   1.0045
     1.3750

          k =-0.1875 0.1804-0.0673 (  4466 PWs)   bands (ev):

   -28.7502 -13.6711 -11.3490 -10.1842  -8.8036  -0.9038   0.3332   1.9347
     2.2915

          k = 0.2500 0.0722-0.0673 (  4466 PWs)   bands (ev):

   -28.7502 -13.6711 -11.3489 -10.1842  -8.8036  -0.9038   0.3328   1.9347
     2.2916

          k =-0.3125 0.2526-0.0673 (  4438 PWs)   bands (ev):

   -28.5825 -13.3613 -12.0919 -10.3985  -8.1845  -2.2985  -0.0035   3.5691
     3.9243

          k = 0.3750 0.1443-0.0673 (  4438 PWs)   bands (ev):

   -28.5825 -13.3613 -12.0919 -10.3985  -8.1845  -2.2986  -0.0035   3.5691
     3.9243

          k =-0.4375 0.3248-0.0673 (  4394 PWs)   bands (ev):

   -28.4841 -13.1769 -12.4721 -10.5166  -7.7387  -3.1737  -0.1792   5.7635
     6.1846

          k = 0.5000 0.2165-0.0673 (  4394 PWs)   bands (ev):

   -28.4841 -13.1768 -12.4721 -10.5166  -7.7387  -3.1737  -0.1792   5.7635
     6.1845

          k = 0.4375-0.1804-0.0673 (  4416 PWs)   bands (ev):

   -28.5189 -13.2424 -12.3410 -10.4756  -7.9093  -2.8531  -0.1188   4.6229
     4.9979

          k =-0.3750-0.2887-0.0673 (  4416 PWs)   bands (ev):

   -28.5189 -13.2424 -12.3410 -10.4755  -7.9093  -2.8530  -0.1188   4.6229
     4.9979

          k = 0.3125-0.1083-0.0673 (  4460 PWs)   bands (ev):

   -28.6639 -13.5124 -11.7496 -10.2969  -8.4958  -1.6170   0.1535   2.6673
     3.0198

          k =-0.2500-0.2165-0.0673 (  4460 PWs)   bands (ev):

   -28.6639 -13.5125 -11.7496 -10.2968  -8.4958  -1.6169   0.1536   2.6673
     3.0198

          k = 0.1875-0.0361-0.0673 (  4490 PWs)   bands (ev):

   -28.8284 -13.8132 -10.9326 -10.0784  -9.0930  -0.2445   0.5075   1.3787
     1.7427

          k =-0.1250-0.1443-0.0673 (  4490 PWs)   bands (ev):

   -28.8284 -13.8132 -10.9326 -10.0783  -9.0930  -0.2450   0.5086   1.3787
     1.7426

          k = 0.0000-0.0722-0.0673 (  4520 PWs)   bands (ev):

   -28.9186 -13.9758 -10.2539  -9.9534  -9.5746   0.5688   0.7248   0.8170
     1.1901

          k = 0.3750 0.0000-0.0673 (  4450 PWs)   bands (ev):

   -28.6088 -13.4112 -11.8573 -10.5518  -8.2625  -1.8099  -0.3322   3.2134
     3.5648

          k =-0.3125 0.3969-0.0673 (  4428 PWs)   bands (ev):

   -28.4852 -13.1825 -12.1817 -10.9278  -7.7112  -2.6474  -0.9286   5.1523
     5.5398

          k = 0.5000 0.0722-0.0673 (  4428 PWs)   bands (ev):

   -28.4852 -13.1824 -12.1817 -10.9278  -7.7112  -2.6478  -0.9285   5.1522
     5.5398

          k =-0.4375 0.4691-0.0673 (  4432 PWs)   bands (ev):

   -28.4557 -13.1275 -12.2483 -11.0219  -7.5555  -2.8784  -1.0582   6.2783
     6.7471

          k = 0.6250 0.1443-0.0673 (  4432 PWs)   bands (ev):

   -28.4557 -13.1276 -12.2482 -11.0219  -7.5555  -2.8783  -1.0583   6.2784
     6.7471

          k = 0.4375-0.0361-0.0673 (  4450 PWs)   bands (ev):

   -28.5393 -13.2827 -12.0503 -10.7597  -7.9678  -2.2621  -0.6766   4.1085
     4.4673

          k =-0.2500-0.3608-0.0673 (  4450 PWs)   bands (ev):

   -28.5393 -13.2829 -12.0503 -10.7597  -7.9679  -2.2616  -0.6766   4.1085
     4.4672

          k = 0.3125 0.0361-0.0673 (  4452 PWs)   bands (ev):

   -28.6829 -13.5478 -11.6152 -10.3459  -8.5511  -1.3480   0.0354   2.4860
     2.8385

          k =-0.1250-0.2887-0.0673 (  4452 PWs)   bands (ev):

   -28.6829 -13.5479 -11.6153 -10.3458  -8.5511  -1.3479   0.0363   2.4860
     2.8385

          k = 0.0000-0.2165-0.0673 (  4480 PWs)   bands (ev):

   -28.8011 -13.7638 -11.0987 -10.0968  -8.9929  -0.5109   0.4891   1.5644
     1.9257

          k = 0.6250 0.0000-0.0673 (  4434 PWs)   bands (ev):

   -28.4296 -13.0812 -11.9022 -11.5772  -7.3992  -2.4153  -1.9633   7.1502
     7.8194

          k =-0.4375 0.6134-0.0673 (  4444 PWs)   bands (ev):

   -28.4493 -13.1168 -12.0841 -11.2651  -7.5128  -2.6078  -1.4840   6.1480
     6.6031

          k = 0.7500 0.0722-0.0673 (  4444 PWs)   bands (ev):

   -28.4492 -13.1171 -12.0839 -11.2651  -7.5129  -2.6073  -1.4841   6.1481
     6.6030

          k = 0.4375 0.1083-0.0673 (  4428 PWs)   bands (ev):

   -28.5321 -13.2682 -12.1823 -10.6224  -7.9503  -2.5361  -0.4004   4.2812
     4.6447

          k =-0.1250-0.4330-0.0673 (  4428 PWs)   bands (ev):

   -28.5321 -13.2685 -12.1822 -10.6224  -7.9504  -2.5357  -0.3996   4.2812
     4.6446

          k = 0.0000-0.3608-0.0673 (  4442 PWs)   bands (ev):

   -28.6287 -13.4470 -11.9331 -10.2918  -8.3739  -1.9724   0.1833   3.0292
     3.3819

          k = 0.8750 0.0000-0.0673 (  4420 PWs)   bands (ev):

   -28.4679 -13.1488 -12.3997 -10.7363  -7.6362  -3.0996  -0.5636   6.4061
     6.5828

          k = 0.0000-0.5052-0.0673 (  4396 PWs)   bands (ev):

   -28.5020 -13.2105 -12.4491 -10.4247  -7.8373  -3.0841  -0.0172   5.1240
     5.5215

     the Fermi energy is    -5.8892 ev

!    total energy              =     -59.98538341 Ry
     Harris-Foulkes estimate   =     -59.98538377 Ry
     estimated scf accuracy    <       0.00000040 Ry

     total all-electron energy =      -226.596374 Ry

     The total energy is the sum of the following terms:

     one-electron contribution =    -276.30228878 Ry
     hartree contribution      =     139.71815301 Ry
     xc contribution           =     -11.73822546 Ry
     ewald contribution        =     104.06069680 Ry
     one-center paw contrib.   =     -15.72371899 Ry
     smearing contrib. (-TS)   =      -0.00000000 Ry

     convergence has been achieved in   7 iterations

     Writing output data file CO_hollow.save

     init_run     :      6.13s CPU      6.39s WALL (       1 calls)
     electrons    :     90.77s CPU     91.00s WALL (       1 calls)

     Called by init_run:
     wfcinit      :      3.88s CPU      4.10s WALL (       1 calls)
     potinit      :      0.70s CPU      0.72s WALL (       1 calls)

     Called by electrons:
     c_bands      :     76.88s CPU     76.29s WALL (       7 calls)
     sum_band     :     10.13s CPU     10.61s WALL (       7 calls)
     v_of_rho     :      1.51s CPU      1.61s WALL (       8 calls)
     newd         :      1.52s CPU      1.62s WALL (       8 calls)
     mix_rho      :      0.11s CPU      0.12s WALL (       7 calls)

     Called by c_bands:
     init_us_2    :      1.72s CPU      1.64s WALL (     780 calls)
     cegterg      :     74.42s CPU     74.07s WALL (     364 calls)

     Called by *egterg:
     h_psi        :     65.27s CPU     61.99s WALL (    1587 calls)
     s_psi        :      1.75s CPU      1.64s WALL (    1587 calls)
     g_psi        :      0.24s CPU      0.22s WALL (    1171 calls)
     cdiaghg      :      3.46s CPU      7.46s WALL (    1535 calls)

     Called by h_psi:
     add_vuspsi   :      1.65s CPU      1.51s WALL (    1587 calls)

     General routines
     calbec       :      2.80s CPU      2.88s WALL (    1951 calls)
     fft          :      0.58s CPU      0.60s WALL (     124 calls)
     ffts         :      0.05s CPU      0.05s WALL (      15 calls)
     fftw         :     58.04s CPU     55.80s WALL (   21674 calls)
     interpolate  :      0.14s CPU      0.14s WALL (      15 calls)
     davcio       :      0.01s CPU      0.02s WALL (      52 calls)

     Parallel routines
     fft_scatter  :      4.92s CPU      4.50s WALL (   21813 calls)

     PAW routines
     PAW_pot      :      1.01s CPU      1.12s WALL (       8 calls)
     PAW_symme    :      0.00s CPU      0.00s WALL (      15 calls)

     PWSCF        :  1m37.43s CPU     1m37.97s WALL


   This run was terminated on:  14:24:25  18Jun2018            

=------------------------------------------------------------------------------=
   JOB DONE.
=------------------------------------------------------------------------------=
