 CRYSTAL
 PRIMVEC
    2.883486610    0.000000000    0.000000000
   -1.441743305    2.497172655    0.000000000
    0.000000000    0.000000000   21.415655050
 PRIMCOORD
           2           1
C         1.441743305    0.754719051    8.857894413
O         1.441746188    0.739936234    9.996004813
BEGIN_BLOCK_DATAGRID_3D
3D_PWSCF
DATAGRID_3D_UNKNOWN
          33          33         241
  0.000000  0.000000  0.000000
  2.883487  0.000000  0.000000
 -1.441743  2.497173  0.000000
  0.000000  0.000000 21.415655
 -0.95431E-06  0.12955E-05 -0.21649E-05 -0.15757E-05  0.25784E-05  0.10003E-05
  0.21446E-06  0.93723E-06  0.13897E-05  0.19729E-05  0.44221E-06  0.33173E-06
  0.96162E-06 -0.15777E-05  0.14050E-05  0.13278E-05 -0.12742E-05  0.13278E-05
  0.14050E-05 -0.15777E-05  0.96162E-06  0.33173E-06  0.44221E-06  0.19729E-05
  0.13897E-05  0.93723E-06  0.21446E-06  0.10003E-05  0.25784E-05 -0.15757E-05
 -0.21649E-05  0.12955E-05 -0.95431E-06  0.15385E-05  0.15385E-05 -0.78080E-06
 -0.29159E-05 -0.25080E-05 -0.19491E-05  0.29644E-06  0.49144E-08 -0.73964E-06
 -0.68263E-06  0.36096E-06 -0.12004E-07  0.18701E-05 -0.16003E-06 -0.18065E-05
  0.14695E-05  0.55086E-06  0.55086E-06  0.14695E-05 -0.18065E-05 -0.16003E-06
  0.18701E-05 -0.12004E-07  0.36096E-06 -0.68263E-06 -0.73964E-06  0.49144E-08
  0.29644E-06 -0.19491E-05 -0.25080E-05 -0.29159E-05 -0.78080E-06  0.15385E-05
 -0.28166E-06  0.13620E-05 -0.28166E-06  0.10564E-05  0.10902E-05 -0.27703E-05
  0.91000E-06  0.11082E-05 -0.16442E-05 -0.22289E-05 -0.75742E-06 -0.41701E-06
 -0.20558E-05  0.18632E-05  0.94896E-06 -0.10821E-05 -0.13354E-07 -0.27843E-07
 -0.13354E-07 -0.10821E-05  0.94896E-06  0.18632E-05 -0.20558E-05 -0.41701E-06
 -0.75742E-06 -0.22289E-05 -0.16442E-05  0.11082E-05  0.91000E-06 -0.27703E-05
  0.10902E-05  0.10564E-05 -0.28166E-06 -0.19145E-05 -0.10382E-05 -0.10382E-05
 -0.19145E-05  0.19101E-05  0.53345E-06  0.44591E-06  0.14794E-05 -0.62260E-06
  0.45159E-06 -0.18726E-06  0.19311E-05  0.17308E-07 -0.90551E-06  0.16202E-05
 -0.61531E-06 -0.96196E-07 -0.33275E-06 -0.33275E-06 -0.96196E-07 -0.61531E-06
  0.16202E-05 -0.90551E-06  0.17308E-07  0.19311E-05 -0.18726E-06  0.45159E-06
 -0.62260E-06  0.14794E-05  0.44591E-06  0.53345E-06  0.19101E-05 -0.19145E-05
 -0.13403E-06 -0.19845E-06 -0.16659E-06 -0.19845E-06 -0.13403E-06  0.19465E-06
 -0.18814E-06 -0.29785E-06 -0.14074E-05  0.14937E-05  0.17688E-05 -0.27847E-06
  0.18003E-05 -0.30934E-06 -0.71566E-06 -0.13298E-05  0.16676E-07  0.16219E-05
 -0.32178E-06  0.16219E-05  0.16676E-07 -0.13298E-05 -0.71566E-06 -0.30934E-06
  0.18003E-05 -0.27847E-06  0.17688E-05  0.14937E-05 -0.14074E-05 -0.29785E-06
 -0.18814E-06  0.19465E-06 -0.13403E-06 -0.15649E-06  0.28185E-05  0.27837E-05
  0.27837E-05  0.28185E-05 -0.15649E-06  0.35994E-06  0.20101E-06 -0.15864E-05
 -0.18005E-05  0.83867E-06 -0.59523E-06 -0.45193E-06  0.15162E-06 -0.37545E-06
  0.11361E-05 -0.83054E-06 -0.10733E-05 -0.12781E-05 -0.12781E-05 -0.10733E-05
 -0.83054E-06  0.11361E-05 -0.37545E-06  0.15162E-06 -0.45193E-06 -0.59523E-06
  0.83867E-06 -0.18005E-05 -0.15864E-05  0.20101E-06  0.35994E-06 -0.15649E-06
  0.65863E-06  0.51077E-08  0.21727E-05  0.14998E-05  0.21727E-05  0.51077E-08
  0.65863E-06  0.24973E-05  0.58658E-06 -0.17710E-05 -0.71530E-06  0.21255E-05
  0.14606E-05  0.44996E-06 -0.85319E-06  0.61081E-06  0.46274E-07 -0.36389E-05
 -0.25588E-05 -0.46225E-06 -0.25588E-05 -0.36389E-05  0.46274E-07  0.61081E-06
 -0.85319E-06  0.44996E-06  0.14606E-05  0.21255E-05 -0.71530E-06 -0.17710E-05
  0.58658E-06  0.24973E-05  0.65863E-06  0.17054E-05  0.50527E-06  0.81436E-06
 -0.14215E-07 -0.14215E-07  0.81436E-06  0.50527E-06  0.17054E-05  0.24606E-05
  0.14439E-05 -0.42667E-06  0.15036E-06  0.87715E-06 -0.19114E-07 -0.20361E-07
  0.20613E-06 -0.12323E-05 -0.16067E-05 -0.17963E-05 -0.44818E-06 -0.44818E-06
 -0.17963E-05 -0.16067E-05 -0.12323E-05  0.20613E-06 -0.20361E-07 -0.19114E-07
  0.87715E-06  0.15036E-06 -0.42667E-06  0.14439E-05  0.24606E-05  0.17054E-05
  0.19807E-06  0.49663E-06  0.14737E-05 -0.42690E-06 -0.16521E-05 -0.42690E-06
  0.14737E-05  0.49663E-06  0.19807E-06  0.15208E-05  0.93378E-06 -0.81681E-06
 -0.21927E-05 -0.13302E-05 -0.10702E-05  0.16571E-05 -0.93610E-07 -0.13992E-05
  0.30434E-06 -0.70961E-06  0.52867E-06 -0.70961E-06  0.30434E-06 -0.13992E-05
 -0.93610E-07  0.16571E-05 -0.10702E-05 -0.13302E-05 -0.21927E-05 -0.81681E-06
  0.93378E-06  0.15208E-05  0.19807E-06 -0.78183E-06  0.11970E-05  0.26675E-05
 -0.89775E-06 -0.32689E-05 -0.32689E-05 -0.89775E-06  0.26675E-05  0.11970E-05
 -0.78183E-06 -0.18418E-05  0.74026E-06  0.10688E-05  0.16587E-05  0.76438E-06
 -0.13372E-05 -0.41617E-06 -0.33634E-05 -0.14464E-05 -0.42812E-06  0.58814E-05
  0.58814E-05 -0.42812E-06 -0.14464E-05 -0.33634E-05 -0.41617E-06 -0.13372E-05
  0.76438E-06  0.16587E-05  0.10688E-05  0.74026E-06 -0.18418E-05 -0.78183E-06
 -0.18612E-05 -0.44038E-07  0.23206E-05  0.12802E-05 -0.29592E-05 -0.36494E-05
 -0.29592E-05  0.12802E-05  0.23206E-05 -0.44038E-07 -0.18612E-05 -0.85505E-06
  0.13858E-05  0.56727E-06  0.18342E-05 -0.72442E-06 -0.42867E-06 -0.19891E-05
 -0.26280E-05 -0.62516E-06  0.20804E-05  0.79178E-05  0.20804E-05 -0.62516E-06
 -0.26280E-05 -0.19891E-05 -0.42867E-06 -0.72442E-06  0.18342E-05  0.56727E-06
  0.13858E-05 -0.85505E-06 -0.18612E-05  0.11700E-05  0.76968E-06  0.11997E-06
  0.15759E-05  0.57130E-06 -0.16441E-05 -0.16441E-05  0.57130E-06  0.15759E-05
  0.11997E-06  0.76968E-06  0.11700E-05  0.37030E-06 -0.17340E-05 -0.18718E-05
 -0.99626E-06  0.33097E-06  0.15656E-05 -0.15320E-05 -0.86165E-07 -0.36344E-06
  0.29950E-06  0.29950E-06 -0.36344E-06 -0.86165E-07 -0.15320E-05  0.15656E-05
  0.33097E-06 -0.99626E-06 -0.18718E-05 -0.17340E-05  0.37030E-06  0.11700E-05
  0.52615E-06  0.21224E-05  0.21583E-05  0.10454E-05  0.66690E-06  0.89963E-06
  0.91456E-07  0.89963E-06  0.66690E-06  0.10454E-05  0.21583E-05  0.21224E-05
  0.52615E-06 -0.13868E-06  0.11065E-05  0.62916E-06 -0.61794E-06 -0.71963E-07
 -0.51602E-06 -0.17107E-05 -0.21408E-05 -0.14127E-05  0.26765E-06 -0.14127E-05
 -0.21408E-05 -0.17107E-05 -0.51602E-06 -0.71963E-07 -0.61794E-06  0.62916E-06
  0.11065E-05 -0.13868E-06  0.52615E-06 -0.17604E-05 -0.37374E-06  0.15836E-05
  0.14759E-05 -0.85371E-06  0.14367E-05  0.21457E-05  0.21457E-05  0.14367E-05
 -0.85371E-06  0.14759E-05  0.15836E-05 -0.37374E-06 -0.17604E-05  0.73914E-06
  0.17858E-05  0.55432E-06 -0.51716E-06 -0.26716E-06  0.13172E-05 -0.17506E-05
 -0.36512E-05 -0.12632E-05 -0.12632E-05 -0.36512E-05 -0.17506E-05  0.13172E-05
 -0.26716E-06 -0.51716E-06  0.55432E-06  0.17858E-05  0.73914E-06 -0.17604E-05
 -0.66335E-06 -0.20534E-05 -0.36198E-06  0.73600E-06 -0.31365E-06  0.87355E-06
  0.30384E-05  0.16546E-05  0.30384E-05  0.87355E-06 -0.31365E-06  0.73600E-06
 -0.36198E-06 -0.20534E-05 -0.66335E-06  0.13924E-06 -0.13004E-05  0.59449E-06
 -0.10324E-06  0.71731E-06  0.40323E-06 -0.10439E-05 -0.71911E-06 -0.16213E-05
 -0.71911E-06 -0.10439E-05  0.40323E-06  0.71731E-06 -0.10324E-06  0.59449E-06
 -0.13004E-05  0.13924E-06 -0.66335E-06  0.27506E-05 -0.48205E-06 -0.95927E-06
  0.21417E-06  0.46072E-06  0.19217E-06 -0.34500E-06 -0.35567E-06 -0.35567E-06
 -0.34500E-06  0.19217E-06  0.46072E-06  0.21417E-06 -0.95927E-06 -0.48205E-06
  0.27506E-05  0.33353E-06  0.11824E-05  0.95004E-06 -0.14239E-05 -0.12022E-05
 -0.16179E-05  0.16273E-05  0.43467E-06  0.43467E-06  0.16273E-05 -0.16179E-05
 -0.12022E-05 -0.14239E-05  0.95004E-06  0.11824E-05  0.33353E-06  0.27506E-05
  0.74714E-06  0.28715E-06  0.93102E-07  0.14905E-05 -0.24381E-06  0.22680E-05
  0.36066E-06 -0.17835E-05 -0.39724E-09 -0.17835E-05  0.36066E-06  0.22680E-05
 -0.24381E-06  0.14905E-05  0.93102E-07  0.28715E-06  0.74714E-06  0.11111E-05
  0.19400E-05 -0.16669E-05  0.93413E-06  0.70324E-06 -0.79329E-06  0.17164E-06
 -0.91303E-06  0.17164E-06 -0.79329E-06  0.70324E-06  0.93413E-06 -0.16669E-05
  0.19400E-05  0.11111E-05  0.74714E-06 -0.19187E-05 -0.19429E-05 -0.78251E-06
  0.18765E-05 -0.15354E-05 -0.10734E-05  0.23607E-05 -0.17240E-06  0.56878E-06
  0.56878E-06 -0.17240E-06  0.23607E-05 -0.10734E-05 -0.15354E-05  0.18765E-05
 -0.78251E-06 -0.19429E-05 -0.19187E-05 -0.42921E-07 -0.16976E-05  0.17253E-07
  0.25297E-05 -0.84240E-06 -0.80143E-06 -0.51621E-07 -0.51621E-07 -0.80143E-06
 -0.84240E-06  0.25297E-05  0.17253E-07 -0.16976E-05 -0.42921E-07 -0.19187E-05
 -0.53154E-06 -0.14525E-05 -0.11877E-05  0.48915E-08 -0.59219E-06 -0.22917E-05
 -0.27211E-05 -0.24561E-05  0.78048E-06  0.17692E-05  0.78048E-06 -0.24561E-05
 -0.27211E-05 -0.22917E-05 -0.59219E-06  0.48915E-08 -0.11877E-05 -0.14525E-05
 -0.53154E-06 -0.21272E-06  0.56369E-06  0.13430E-05 -0.19250E-05 -0.53642E-07
  0.13535E-05 -0.51529E-07  0.13535E-05 -0.53642E-07 -0.19250E-05  0.13430E-05
  0.56369E-06 -0.21272E-06 -0.53154E-06  0.16786E-05  0.16299E-05  0.90335E-06
  0.16113E-06  0.17102E-06  0.19226E-05  0.92197E-06 -0.34658E-05  0.47896E-06
  0.56633E-06  0.56633E-06  0.47896E-06 -0.34658E-05  0.92197E-06  0.19226E-05
  0.17102E-06  0.16113E-06  0.90335E-06  0.16299E-05  0.16786E-05 -0.62522E-07
  0.11460E-05 -0.67575E-06 -0.11453E-06  0.25020E-05 -0.59241E-06 -0.59241E-06
  0.25020E-05 -0.11453E-06 -0.67575E-06  0.11460E-05 -0.62522E-07  0.16786E-05
 -0.10085E-05  0.16436E-05  0.26950E-05  0.19338E-05  0.63320E-08  0.44357E-06
  0.11959E-05 -0.20715E-06  0.62513E-06 -0.25880E-06 -0.55462E-05 -0.25880E-06
  0.62513E-06 -0.20715E-06  0.11959E-05  0.44357E-06  0.63320E-08  0.19338E-05
  0.26950E-05  0.16436E-05 -0.10085E-05 -0.20714E-05  0.56636E-06 -0.29176E-06
 -0.15483E-06  0.48968E-06  0.10583E-05  0.48968E-06 -0.15483E-06 -0.29176E-06
  0.56636E-06 -0.20714E-05 -0.10085E-05 -0.15302E-05 -0.28438E-06  0.35777E-06
  0.15148E-05 -0.36470E-06  0.72457E-06 -0.10432E-05 -0.18438E-05  0.63520E-06
  0.15214E-05 -0.14016E-05 -0.14016E-05  0.15214E-05  0.63520E-06 -0.18438E-05
 -0.10432E-05  0.72457E-06 -0.36470E-06  0.15148E-05  0.35777E-06 -0.28438E-06
 -0.15302E-05  0.58808E-06  0.15482E-05 -0.14206E-05 -0.17969E-05  0.18905E-05
  0.18905E-05 -0.17969E-05 -0.14206E-05  0.15482E-05  0.58808E-06 -0.15302E-05
 -0.10316E-06  0.10641E-05  0.16336E-05  0.10598E-05 -0.57451E-08  0.14789E-05
  0.28781E-05 -0.93018E-06  0.91537E-07  0.12766E-05  0.14016E-05  0.11272E-05
  0.14016E-05  0.12766E-05  0.91537E-07 -0.93018E-06  0.28781E-05  0.14789E-05
 -0.57451E-08  0.10598E-05  0.16336E-05  0.10641E-05 -0.10316E-06  0.22738E-05
  0.70259E-06 -0.16806E-05 -0.14730E-05  0.38842E-07 -0.14730E-05 -0.16806E-05
  0.70259E-06  0.22738E-05 -0.10316E-06  0.15294E-05  0.78740E-06  0.30750E-05
  0.17899E-05  0.93796E-06  0.90954E-06  0.26833E-05  0.17142E-05 -0.68827E-06
 -0.14787E-05 -0.17813E-06 -0.23969E-05 -0.23969E-05 -0.17813E-06 -0.14787E-05
 -0.68827E-06  0.17142E-05  0.26833E-05  0.90954E-06  0.93796E-06  0.17899E-05
  0.30750E-05  0.78740E-06  0.15294E-05  0.24429E-05  0.16250E-06 -0.91359E-06
  0.38005E-06  0.38005E-06 -0.91359E-06  0.16250E-06  0.24429E-05  0.15294E-05
  0.11083E-05  0.88836E-06  0.16588E-05 -0.61401E-06 -0.19163E-05 -0.75316E-06
  0.19975E-06  0.21500E-05  0.26710E-05 -0.12111E-05  0.69939E-07  0.11385E-05
 -0.31789E-05  0.11385E-05  0.69939E-07 -0.12111E-05  0.26710E-05  0.21500E-05
  0.19975E-06 -0.75316E-06 -0.19163E-05 -0.61401E-06  0.16588E-05  0.88836E-06
  0.11083E-05  0.94574E-06  0.94790E-07  0.55271E-06  0.16005E-05  0.55271E-06
  0.94790E-07  0.94574E-06  0.11083E-05 -0.43618E-06 -0.53281E-06  0.85080E-06
 -0.93989E-06 -0.36834E-05 -0.30290E-05 -0.11030E-05  0.78811E-06  0.21662E-05
  0.13794E-05  0.24669E-06  0.26728E-05 -0.15398E-05 -0.15398E-05  0.26728E-05
  0.24669E-06  0.13794E-05  0.21662E-05  0.78811E-06 -0.11030E-05 -0.30290E-05
 -0.36834E-05 -0.93989E-06  0.85080E-06 -0.53281E-06 -0.43618E-06  0.27504E-06
  0.47650E-06 -0.18076E-05 -0.18076E-05  0.47650E-06  0.27504E-06 -0.43618E-06
  0.16746E-06  0.22206E-05  0.17615E-05  0.83828E-07 -0.23508E-05 -0.37936E-05
 -0.25162E-05  0.84205E-06  0.54604E-06 -0.56192E-06 -0.37608E-06  0.36422E-06
 -0.72469E-06 -0.27742E-05 -0.72469E-06  0.36422E-06 -0.37608E-06 -0.56192E-06
  0.54604E-06  0.84205E-06 -0.25162E-05 -0.37936E-05 -0.23508E-05  0.83828E-07
  0.17615E-05  0.22206E-05  0.16746E-06  0.16202E-05  0.15598E-05 -0.26425E-05
  0.15598E-05  0.16202E-05  0.16746E-06 -0.15308E-05  0.77898E-06  0.29782E-05
  0.13711E-05 -0.25878E-06 -0.15032E-05 -0.19161E-05  0.97263E-06  0.13736E-05
  0.68627E-06  0.10294E-05  0.28171E-06  0.11597E-06  0.15803E-05  0.15803E-05
  0.11597E-06  0.28171E-06  0.10294E-05  0.68627E-06  0.13736E-05  0.97263E-06
 -0.19161E-05 -0.15032E-05 -0.25878E-06  0.13711E-05  0.29782E-05  0.77898E-06
 -0.15308E-05  0.19101E-05 -0.18701E-05 -0.18701E-05  0.19101E-05 -0.15308E-05
 -0.82162E-06 -0.12973E-05  0.17996E-06  0.23569E-05  0.17513E-05  0.10911E-05
  0.13091E-05  0.25622E-05  0.19632E-05  0.63305E-07  0.23113E-05  0.16917E-05
 -0.14393E-06 -0.10376E-06  0.10427E-05 -0.10376E-06 -0.14393E-06  0.16917E-05
  0.23113E-05  0.63305E-07  0.19632E-05  0.25622E-05  0.13091E-05  0.10911E-05
  0.17513E-05  0.23569E-05  0.17996E-06 -0.12973E-05 -0.82162E-06 -0.10391E-05
 -0.34913E-05 -0.10391E-05 -0.82162E-06  0.10750E-05  0.87355E-06 -0.75277E-06
  0.67758E-06  0.28524E-05  0.20279E-06  0.10296E-05  0.11056E-05  0.17964E-05
  0.15683E-06  0.12398E-05  0.20763E-05 -0.46181E-06 -0.19632E-05 -0.84288E-06
 -0.84288E-06 -0.19632E-05 -0.46181E-06  0.20763E-05  0.12398E-05  0.15683E-06
  0.17964E-05  0.11056E-05  0.10296E-05  0.20279E-06  0.28524E-05  0.67758E-06
 -0.75277E-06  0.87355E-06  0.10750E-05  0.13379E-05  0.13379E-05  0.10750E-05
  0.64869E-06  0.15985E-05 -0.46172E-06 -0.20059E-05  0.36449E-06 -0.40199E-06
  0.52327E-07  0.97040E-06 -0.11147E-06 -0.67062E-06 -0.83759E-06  0.19047E-05
  0.26855E-06 -0.21445E-05 -0.53300E-06  0.23407E-05 -0.53300E-06 -0.21445E-05
  0.26855E-06  0.19047E-05 -0.83759E-06 -0.67062E-06 -0.11147E-06  0.97040E-06
  0.52327E-07 -0.40199E-06  0.36449E-06 -0.20059E-05 -0.46172E-06  0.15985E-05
  0.64869E-06 -0.20614E-05  0.64869E-06 -0.37234E-05  0.16937E-05 -0.29802E-06
  0.96803E-06  0.12276E-05  0.55663E-07  0.19819E-06  0.22056E-05  0.20174E-05
  0.53353E-06 -0.26922E-05 -0.77309E-06  0.51514E-06 -0.33744E-06  0.18112E-06
  0.84706E-06  0.84706E-06  0.18112E-06 -0.33744E-06  0.51514E-06 -0.77309E-06
 -0.26922E-05  0.53353E-06  0.20174E-05  0.22056E-05  0.19819E-06  0.55663E-07
  0.12276E-05  0.96803E-06 -0.29802E-06  0.16937E-05 -0.37234E-05 -0.37234E-05
 -0.95431E-06  0.12955E-05 -0.21649E-05 -0.15757E-05  0.25784E-05  0.10003E-05
  0.21446E-06  0.93723E-06  0.13897E-05  0.19729E-05  0.44221E-06  0.33173E-06
  0.96162E-06 -0.15777E-05  0.14050E-05  0.13278E-05 -0.12742E-05  0.13278E-05
  0.14050E-05 -0.15777E-05  0.96162E-06  0.33173E-06  0.44221E-06  0.19729E-05
  0.13897E-05  0.93723E-06  0.21446E-06  0.10003E-05  0.25784E-05 -0.15757E-05
 -0.21649E-05  0.12955E-05 -0.95431E-06 -0.72530E-06  0.23989E-05 -0.41346E-06
 -0.61332E-06  0.89874E-06 -0.15097E-05  0.28603E-06  0.81476E-07 -0.28230E-05
 -0.25750E-05  0.86799E-08  0.10905E-05 -0.11787E-05 -0.24150E-06  0.73915E-06
 -0.16004E-05 -0.24765E-06 -0.16004E-05  0.73915E-06 -0.24150E-06 -0.11787E-05
  0.10905E-05  0.86799E-08 -0.25750E-05 -0.28230E-05  0.81476E-07  0.28603E-06
 -0.15097E-05  0.89874E-06 -0.61332E-06 -0.41346E-06  0.23989E-05 -0.72530E-06
  0.18131E-06  0.18131E-06  0.14801E-06 -0.78224E-06  0.43168E-05  0.15838E-05
  0.20156E-06  0.19787E-05  0.12208E-05 -0.23534E-06 -0.86815E-06 -0.15425E-05
 -0.13076E-05 -0.41215E-06  0.87903E-06 -0.20257E-05  0.50274E-06  0.50274E-06
 -0.20257E-05  0.87903E-06 -0.41215E-06 -0.13076E-05 -0.15425E-05 -0.86815E-06
 -0.23534E-06  0.12208E-05  0.19787E-05  0.20156E-06  0.15838E-05  0.43168E-05
 -0.78224E-06  0.14801E-06  0.18131E-06  0.61891E-06  0.12606E-06  0.61891E-06
 -0.51613E-06  0.22151E-05  0.21484E-05 -0.14799E-05 -0.15289E-05  0.57071E-06
  0.12926E-05  0.14191E-05  0.90840E-06  0.47382E-08  0.17495E-06  0.74596E-06
 -0.58532E-06 -0.14058E-05  0.14634E-05 -0.14058E-05 -0.58532E-06  0.74596E-06
  0.17495E-06  0.47382E-08  0.90840E-06  0.14191E-05  0.12926E-05  0.57071E-06
 -0.15289E-05 -0.14799E-05  0.21484E-05  0.22151E-05 -0.51613E-06  0.61891E-06
  0.79016E-07 -0.33083E-06 -0.33083E-06  0.79016E-07 -0.15962E-05 -0.39119E-06
 -0.33145E-06 -0.27543E-05 -0.17801E-05  0.11262E-05 -0.40094E-06 -0.21550E-06
  0.23521E-06  0.78259E-06 -0.48704E-06  0.94479E-07  0.46605E-06  0.48774E-06
  0.48774E-06  0.46605E-06  0.94479E-07 -0.48704E-06  0.78259E-06  0.23521E-06
 -0.21550E-06 -0.40094E-06  0.11262E-05 -0.17801E-05 -0.27543E-05 -0.33145E-06
 -0.39119E-06 -0.15962E-05  0.79016E-07 -0.24729E-06  0.10966E-05 -0.10691E-05
  0.10966E-05 -0.24729E-06 -0.21411E-05  0.91603E-06  0.17699E-05 -0.37492E-06
  0.10272E-05  0.28640E-06 -0.12860E-05 -0.16946E-05 -0.17518E-05  0.88556E-07
  0.39186E-06  0.15056E-05  0.92169E-06  0.16630E-06  0.92169E-06  0.15056E-05
  0.39186E-06  0.88556E-07 -0.17518E-05 -0.16946E-05 -0.12860E-05  0.28640E-06
  0.10272E-05 -0.37492E-06  0.17699E-05  0.91603E-06 -0.21411E-05 -0.24729E-06
 -0.21945E-05 -0.11117E-05 -0.19610E-05 -0.19610E-05 -0.11117E-05 -0.21945E-05
 -0.77240E-06  0.13279E-05  0.23072E-05  0.11783E-05 -0.68414E-06 -0.10910E-05
  0.13752E-05  0.18829E-06 -0.16964E-06  0.15333E-05  0.75642E-06  0.14525E-06
  0.73048E-07  0.73048E-07  0.14525E-06  0.75642E-06  0.15333E-05 -0.16964E-06
  0.18829E-06  0.13752E-05 -0.10910E-05 -0.68414E-06  0.11783E-05  0.23072E-05
  0.13279E-05 -0.77240E-06 -0.21945E-05  0.94974E-07 -0.17102E-05 -0.17538E-05
 -0.14854E-05 -0.17538E-05 -0.17102E-05  0.94974E-07 -0.12741E-05 -0.19848E-05
  0.85833E-06  0.13046E-05 -0.10369E-05 -0.13366E-05  0.99901E-06  0.80366E-06
  0.73047E-06  0.29175E-06  0.35670E-06  0.17767E-05  0.20317E-05  0.17767E-05
  0.35670E-06  0.29175E-06  0.73047E-06  0.80366E-06  0.99901E-06 -0.13366E-05
 -0.10369E-05  0.13046E-05  0.85833E-06 -0.19848E-05 -0.12741E-05  0.94974E-07
 -0.34714E-06  0.24256E-06  0.11374E-07  0.11939E-05  0.11939E-05  0.11374E-07
  0.24256E-06 -0.34714E-06 -0.29955E-05 -0.26158E-05  0.27277E-08  0.14057E-05
 -0.65106E-06 -0.22098E-05 -0.25307E-06  0.30224E-06  0.63238E-08  0.12556E-05
  0.25130E-05  0.13561E-05  0.13561E-05  0.25130E-05  0.12556E-05  0.63238E-08
  0.30224E-06 -0.25307E-06 -0.22098E-05 -0.65106E-06  0.14057E-05  0.27277E-08
 -0.26158E-05 -0.29955E-05 -0.34714E-06 -0.18839E-05 -0.20085E-05 -0.15027E-05
 -0.13801E-06  0.16830E-05 -0.13801E-06 -0.15027E-05 -0.20085E-05 -0.18839E-05
 -0.57324E-06 -0.88649E-06 -0.13175E-05  0.73077E-06  0.59055E-06  0.18736E-06
  0.13083E-05  0.72754E-07  0.15939E-05  0.17522E-05 -0.16877E-05 -0.30877E-05
 -0.16877E-05  0.17522E-05  0.15939E-05  0.72754E-07  0.13083E-05  0.18736E-06
  0.59055E-06  0.73077E-06 -0.13175E-05 -0.88649E-06 -0.57324E-06 -0.18839E-05
  0.23334E-06 -0.89120E-06  0.40540E-06  0.42432E-06  0.41604E-05  0.41604E-05
  0.42432E-06  0.40540E-06 -0.89120E-06  0.23334E-06  0.22484E-05  0.15664E-06
 -0.12081E-05  0.67014E-06 -0.13722E-06  0.99998E-06  0.63591E-06  0.68026E-06
  0.27528E-05 -0.20698E-05 -0.39691E-05 -0.39691E-05 -0.20698E-05  0.27528E-05
  0.68026E-06  0.63591E-06  0.99998E-06 -0.13722E-06  0.67014E-06 -0.12081E-05
  0.15664E-06  0.22484E-05  0.23334E-06  0.17635E-05 -0.84544E-06 -0.26400E-06
  0.25167E-06  0.20766E-05  0.56123E-05  0.20766E-05  0.25167E-06 -0.26400E-06
 -0.84544E-06  0.17635E-05  0.18263E-05 -0.11589E-05 -0.36918E-06  0.20883E-06
 -0.21085E-06  0.12908E-05 -0.17382E-06  0.19452E-05  0.62773E-06 -0.43056E-05
 -0.47122E-05 -0.43056E-05  0.62773E-06  0.19452E-05 -0.17382E-06  0.12908E-05
 -0.21085E-06  0.20883E-06 -0.36918E-06 -0.11589E-05  0.18263E-05  0.17635E-05
 -0.45083E-06 -0.11686E-05 -0.20399E-05 -0.15695E-05 -0.92218E-06  0.14875E-05
  0.14875E-05 -0.92218E-06 -0.15695E-05 -0.20399E-05 -0.11686E-05 -0.45083E-06
 -0.13701E-05 -0.45683E-06  0.99208E-06 -0.26155E-06  0.85283E-06  0.91651E-06
  0.34505E-06  0.22648E-05  0.37403E-06 -0.33473E-05 -0.33473E-05  0.37403E-06
  0.22648E-05  0.34505E-06  0.91651E-06  0.85283E-06 -0.26155E-06  0.99208E-06
 -0.45683E-06 -0.13701E-05 -0.45083E-06 -0.13983E-05 -0.32036E-05 -0.14665E-05
  0.47759E-06 -0.31762E-06  0.13854E-06  0.10200E-05  0.13854E-06 -0.31762E-06
  0.47759E-06 -0.14665E-05 -0.32036E-05 -0.13983E-05  0.93728E-06  0.84342E-06
 -0.16371E-05 -0.10708E-05  0.52287E-06  0.21109E-06  0.59970E-06  0.25004E-05
  0.25302E-05  0.11076E-05  0.25302E-05  0.25004E-05  0.59970E-06  0.21109E-06
  0.52287E-06 -0.10708E-05 -0.16371E-05  0.84342E-06  0.93728E-06 -0.13983E-05
  0.13166E-05 -0.54824E-06 -0.19841E-05  0.32472E-07 -0.87475E-06 -0.21325E-05
 -0.18234E-05 -0.18234E-05 -0.21325E-05 -0.87475E-06  0.32472E-07 -0.19841E-05
 -0.54824E-06  0.13166E-05  0.10144E-06 -0.16000E-05  0.37542E-06  0.13135E-05
  0.25452E-06  0.47508E-06 -0.92431E-07  0.78976E-06  0.19533E-05  0.19533E-05
  0.78976E-06 -0.92431E-07  0.47508E-06  0.25452E-06  0.13135E-05  0.37542E-06
 -0.16000E-05  0.10144E-06  0.13166E-05  0.37289E-06  0.15072E-05  0.15153E-05
  0.16610E-06 -0.13564E-05 -0.10910E-05 -0.54228E-06 -0.18952E-05 -0.54228E-06
 -0.10910E-05 -0.13564E-05  0.16610E-06  0.15153E-05  0.15072E-05  0.37289E-06
 -0.11998E-05  0.17398E-06  0.12727E-05 -0.81138E-06  0.66319E-06  0.13751E-05
  0.20458E-06  0.58267E-07  0.42018E-06  0.58267E-07  0.20458E-06  0.13751E-05
  0.66319E-06 -0.81138E-06  0.12727E-05  0.17398E-06 -0.11998E-05  0.37289E-06
  0.13158E-05  0.18101E-06  0.55029E-06  0.17575E-05 -0.11121E-05 -0.19280E-05
  0.10921E-05 -0.15086E-06 -0.15086E-06  0.10921E-05 -0.19280E-05 -0.11121E-05
  0.17575E-05  0.55029E-06  0.18101E-06  0.13158E-05 -0.11036E-05 -0.16060E-05
 -0.21780E-05 -0.58135E-06  0.45095E-06  0.98473E-06  0.13769E-05  0.41252E-06
  0.41252E-06  0.13769E-05  0.98473E-06  0.45095E-06 -0.58135E-06 -0.21780E-05
 -0.16060E-05 -0.11036E-05  0.13158E-05  0.19337E-06 -0.24724E-06 -0.28323E-05
 -0.10092E-05 -0.16253E-06 -0.18019E-05 -0.14576E-05  0.14681E-06 -0.73487E-06
  0.14681E-06 -0.14576E-05 -0.18019E-05 -0.16253E-06 -0.10092E-05 -0.28323E-05
 -0.24724E-06  0.19337E-06 -0.69583E-06  0.97297E-07  0.79367E-06  0.55584E-06
 -0.59274E-06  0.40519E-06  0.51578E-07  0.42657E-06  0.51578E-07  0.40519E-06
 -0.59274E-06  0.55584E-06  0.79367E-06  0.97297E-07 -0.69583E-06  0.19337E-06
  0.14556E-05  0.13738E-05 -0.67042E-06 -0.21038E-05 -0.11701E-06  0.29593E-05
  0.35160E-06  0.12729E-06  0.37140E-06  0.37140E-06  0.12729E-06  0.35160E-06
  0.29593E-05 -0.11701E-06 -0.21038E-05 -0.67042E-06  0.13738E-05  0.14556E-05
  0.15518E-05  0.44018E-06  0.32361E-06  0.39907E-06  0.57370E-06 -0.15894E-05
  0.68666E-06  0.68666E-06 -0.15894E-05  0.57370E-06  0.39907E-06  0.32361E-06
  0.44018E-06  0.15518E-05  0.14556E-05 -0.53509E-06  0.76108E-06  0.26488E-05
  0.16609E-05 -0.40339E-07  0.38487E-05  0.21538E-05 -0.13260E-05  0.69684E-06
 -0.10048E-05  0.69684E-06 -0.13260E-05  0.21538E-05  0.38487E-05 -0.40339E-07
  0.16609E-05  0.26488E-05  0.76108E-06 -0.53509E-06 -0.12756E-05 -0.14419E-05
 -0.11256E-05  0.72103E-06 -0.21501E-06 -0.13953E-05  0.19636E-05 -0.13953E-05
 -0.21501E-06  0.72103E-06 -0.11256E-05 -0.14419E-05 -0.12756E-05 -0.53509E-06
 -0.12804E-05 -0.32548E-05 -0.13236E-05  0.11146E-05 -0.53023E-06 -0.35788E-06
  0.10871E-05 -0.17010E-05  0.18649E-05  0.51519E-06  0.51519E-06  0.18649E-05
 -0.17010E-05  0.10871E-05 -0.35788E-06 -0.53023E-06  0.11146E-05 -0.13236E-05
 -0.32548E-05 -0.12804E-05  0.75311E-06  0.38351E-07 -0.14308E-05  0.12621E-05
 -0.89438E-06 -0.10597E-05 -0.10597E-05 -0.89438E-06  0.12621E-05 -0.14308E-05
  0.38351E-07  0.75311E-06 -0.12804E-05  0.15247E-05 -0.16092E-05 -0.20187E-05
 -0.60177E-06 -0.17176E-05 -0.22524E-05 -0.11544E-05 -0.65417E-07  0.11970E-05
  0.11284E-05 -0.13606E-05  0.11284E-05  0.11970E-05 -0.65417E-07 -0.11544E-05
 -0.22524E-05 -0.17176E-05 -0.60177E-06 -0.20187E-05 -0.16092E-05  0.15247E-05
  0.26746E-05 -0.48776E-06 -0.38019E-06  0.13086E-05 -0.10950E-05 -0.34519E-06
 -0.10950E-05  0.13086E-05 -0.38019E-06 -0.48776E-06  0.26746E-05  0.15247E-05
  0.85368E-06 -0.98346E-06 -0.19920E-05  0.58554E-06 -0.12844E-05 -0.13580E-05
  0.69813E-06  0.39615E-06  0.62996E-06 -0.70112E-06 -0.26980E-07 -0.26980E-07
 -0.70112E-06  0.62996E-06  0.39615E-06  0.69813E-06 -0.13580E-05 -0.12844E-05
  0.58554E-06 -0.19920E-05 -0.98346E-06  0.85368E-06  0.33400E-06 -0.22751E-05
  0.56679E-06  0.99858E-06  0.97672E-06  0.97672E-06  0.99858E-06  0.56679E-06
 -0.22751E-05  0.33400E-06  0.85368E-06 -0.15516E-05 -0.75917E-06 -0.10662E-05
 -0.14080E-05 -0.89565E-07 -0.22861E-05 -0.13556E-06  0.65278E-07 -0.45543E-06
  0.19342E-06  0.10333E-05  0.26733E-05  0.10333E-05  0.19342E-06 -0.45543E-06
  0.65278E-07 -0.13556E-06 -0.22861E-05 -0.89565E-07 -0.14080E-05 -0.10662E-05
 -0.75917E-06 -0.15516E-05 -0.26573E-05 -0.22888E-05  0.18097E-05  0.26719E-06
 -0.11623E-05  0.26719E-06  0.18097E-05 -0.22888E-05 -0.26573E-05 -0.15516E-05
 -0.95344E-06 -0.20350E-05  0.86035E-06 -0.27075E-06 -0.86783E-06  0.18312E-07
 -0.21772E-05 -0.18768E-05 -0.54702E-06  0.78837E-07  0.17299E-06 -0.10660E-05
 -0.10660E-05  0.17299E-06  0.78837E-07 -0.54702E-06 -0.18768E-05 -0.21772E-05
  0.18312E-07 -0.86783E-06 -0.27075E-06  0.86035E-06 -0.20350E-05 -0.95344E-06
 -0.16666E-05  0.53120E-06  0.21482E-05 -0.20629E-05 -0.20629E-05  0.21482E-05
  0.53120E-06 -0.16666E-05 -0.95344E-06  0.41563E-06 -0.16477E-06 -0.12888E-05
  0.77698E-06  0.72306E-06  0.81544E-06  0.88385E-06 -0.21409E-05 -0.35400E-06
  0.11436E-05 -0.84581E-06  0.59421E-08  0.44504E-06  0.59421E-08 -0.84581E-06
  0.11436E-05 -0.35400E-06 -0.21409E-05  0.88385E-06  0.81544E-06  0.72306E-06
  0.77698E-06 -0.12888E-05 -0.16477E-06  0.41563E-06 -0.64396E-06  0.13713E-05
  0.29068E-06 -0.20896E-05  0.29068E-06  0.13713E-05 -0.64396E-06  0.41563E-06
 -0.18101E-05 -0.11400E-05 -0.26698E-06 -0.12188E-06  0.43066E-05  0.42193E-05
  0.12608E-05  0.26836E-06 -0.22392E-05 -0.77392E-06 -0.16856E-05 -0.77584E-06
  0.38285E-05  0.38285E-05 -0.77584E-06 -0.16856E-05 -0.77392E-06 -0.22392E-05
  0.26836E-06  0.12608E-05  0.42193E-05  0.43066E-05 -0.12188E-06 -0.26698E-06
 -0.11400E-05 -0.18101E-05 -0.18617E-05 -0.77233E-06  0.65398E-06  0.65398E-06
 -0.77233E-06 -0.18617E-05 -0.18101E-05 -0.66912E-06 -0.14727E-05 -0.14523E-05
  0.91042E-06  0.25167E-05  0.56085E-05  0.18240E-05 -0.72983E-06 -0.33245E-06
 -0.15095E-05 -0.18848E-05 -0.15155E-05  0.30876E-06  0.13231E-05  0.30876E-06
 -0.15155E-05 -0.18848E-05 -0.15095E-05 -0.33245E-06 -0.72983E-06  0.18240E-05
  0.56085E-05  0.25167E-05  0.91042E-06 -0.14523E-05 -0.14727E-05 -0.66912E-06
 -0.24342E-05  0.15427E-05  0.46694E-05  0.15427E-05 -0.24342E-05 -0.66912E-06
 -0.23858E-06  0.11374E-05 -0.19082E-05 -0.95380E-06  0.12085E-05  0.70680E-06
  0.12751E-05 -0.45245E-06 -0.14496E-05  0.85300E-06 -0.27728E-07  0.28395E-06
  0.12044E-05 -0.14452E-05 -0.14452E-05  0.12044E-05  0.28395E-06 -0.27728E-07
  0.85300E-06 -0.14496E-05 -0.45245E-06  0.12751E-05  0.70680E-06  0.12085E-05
 -0.95380E-06 -0.19082E-05  0.11374E-05 -0.23858E-06 -0.58469E-06  0.59469E-06
  0.59469E-06 -0.58469E-06 -0.23858E-06  0.62550E-06 -0.14594E-06 -0.98898E-06
 -0.20928E-05 -0.12757E-05 -0.21768E-06 -0.13992E-05  0.86324E-06 -0.72052E-06
 -0.17553E-05 -0.10643E-05 -0.14119E-05  0.21324E-05 -0.86189E-07 -0.33440E-05
 -0.86189E-07  0.21324E-05 -0.14119E-05 -0.10643E-05 -0.17553E-05 -0.72052E-06
  0.86324E-06 -0.13992E-05 -0.21768E-06 -0.12757E-05 -0.20928E-05 -0.98898E-06
 -0.14594E-06  0.62550E-06 -0.26668E-06 -0.15011E-05 -0.26668E-06  0.62550E-06
  0.27164E-06  0.82824E-07 -0.64419E-06  0.83038E-06 -0.13282E-05 -0.14598E-05
 -0.34165E-06 -0.18191E-05 -0.34792E-06 -0.12071E-05 -0.17048E-05 -0.35648E-05
 -0.20557E-06  0.16746E-05 -0.59773E-06 -0.59773E-06  0.16746E-05 -0.20557E-06
 -0.35648E-05 -0.17048E-05 -0.12071E-05 -0.34792E-06 -0.18191E-05 -0.34165E-06
 -0.14598E-05 -0.13282E-05  0.83038E-06 -0.64419E-06  0.82824E-07  0.27164E-06
  0.20294E-05  0.20294E-05  0.27164E-06 -0.70199E-06 -0.31225E-06  0.37419E-06
  0.18752E-06  0.19430E-06 -0.17509E-05  0.56841E-06 -0.42857E-06 -0.17437E-05
  0.11496E-06  0.10055E-05 -0.12596E-05 -0.13582E-05  0.14793E-05  0.73254E-06
  0.15600E-05  0.73254E-06  0.14793E-05 -0.13582E-05 -0.12596E-05  0.10055E-05
  0.11496E-06 -0.17437E-05 -0.42857E-06  0.56841E-06 -0.17509E-05  0.19430E-06
  0.18752E-06  0.37419E-06 -0.31225E-06 -0.70199E-06  0.52108E-06 -0.70199E-06
 -0.53503E-06  0.16758E-05  0.18600E-06 -0.59157E-06 -0.20949E-05 -0.20519E-05
 -0.52243E-06 -0.73699E-06 -0.23578E-05  0.28220E-07  0.25915E-05  0.14068E-05
 -0.13682E-05  0.12762E-05  0.57724E-07 -0.70463E-06 -0.70463E-06  0.57724E-07
  0.12762E-05 -0.13682E-05  0.14068E-05  0.25915E-05  0.28220E-07 -0.23578E-05
 -0.73699E-06 -0.52243E-06 -0.20519E-05 -0.20949E-05 -0.59157E-06  0.18600E-06
  0.16758E-05 -0.53503E-06 -0.53503E-06 -0.72530E-06  0.23989E-05 -0.41346E-06
 -0.61332E-06  0.89874E-06 -0.15097E-05  0.28603E-06  0.81476E-07 -0.28230E-05
 -0.25750E-05  0.86799E-08  0.10905E-05 -0.11787E-05 -0.24150E-06  0.73915E-06
 -0.16004E-05 -0.24765E-06 -0.16004E-05  0.73915E-06 -0.24150E-06 -0.11787E-05
  0.10905E-05  0.86799E-08 -0.25750E-05 -0.28230E-05  0.81476E-07  0.28603E-06
 -0.15097E-05  0.89874E-06 -0.61332E-06 -0.41346E-06  0.23989E-05 -0.72530E-06
 -0.13288E-05 -0.75353E-06  0.61053E-06  0.40807E-06 -0.24949E-05  0.77118E-07
  0.26860E-06 -0.17623E-05  0.12495E-05  0.16429E-05 -0.87887E-07 -0.30240E-06
  0.25096E-06  0.83414E-06 -0.48566E-06 -0.24527E-08  0.29895E-05 -0.24527E-08
 -0.48566E-06  0.83414E-06  0.25096E-06 -0.30240E-06 -0.87887E-07  0.16429E-05
  0.12495E-05 -0.17623E-05  0.26860E-06  0.77118E-07 -0.24949E-05  0.40807E-06
  0.61053E-06 -0.75353E-06 -0.13288E-05 -0.33044E-05 -0.33044E-05  0.52812E-06
  0.88528E-06 -0.91937E-06 -0.16388E-05  0.86240E-07 -0.18619E-05  0.14261E-06
  0.21108E-05  0.52478E-06  0.26464E-06  0.12442E-06  0.41489E-06  0.21196E-05
 -0.50795E-06  0.62821E-06  0.62821E-06 -0.50795E-06  0.21196E-05  0.41489E-06
  0.12442E-06  0.26464E-06  0.52478E-06  0.21108E-05  0.14261E-06 -0.18619E-05