ANIMSTEPS   6
CRYSTAL
PRIMVEC
   10.583544172    0.000000000    0.000000000
    0.000000000   10.583544172    0.000000000
    0.000000000    0.000000000   10.583544172
PRIMCOORD  1
      2   1
   C      0.00000   0.00000  -0.27064   0.00000   0.07997   0.00000
   O      0.00000   0.00000   0.86754   0.00000  -0.06004   0.00000
PRIMCOORD  2
      2   1
   C      0.00000   0.00000  -0.27064   0.07997   0.00000   0.00000
   O      0.00000   0.00000   0.86754  -0.06004   0.00000   0.00000
PRIMCOORD  3
      2   1
   C      0.00000   0.00000  -0.27064   0.00000   0.00000  -0.07071
   O      0.00000   0.00000   0.86754   0.00000   0.00000  -0.07071
PRIMCOORD  4
      2   1
   C      0.00000   0.00000  -0.27064   0.00000  -0.07071   0.00000
   O      0.00000   0.00000   0.86754   0.00000  -0.07071   0.00000
PRIMCOORD  5
      2   1
   C      0.00000   0.00000  -0.27064  -0.07071   0.00000   0.00000
   O      0.00000   0.00000   0.86754  -0.07071   0.00000   0.00000
PRIMCOORD  6
      2   1
   C      0.00000   0.00000  -0.27064   0.00000   0.00000   0.07997
   O      0.00000   0.00000   0.86754   0.00000   0.00000  -0.06004
