[Molden Format]
[FREQ]
    0.00
    0.00
    0.00
    0.00
    0.00
 2131.63
[FR-COORD]
   C           0.00000        0.00000       -0.51144
   O           0.00000        0.00000        1.63942
[FR-NORM-COORD]
 vibration     1
   0.00000   0.79973   0.00000
   0.00000  -0.60036   0.00000
 vibration     2
   0.79973   0.00000   0.00000
  -0.60036   0.00000   0.00000
 vibration     3
   0.00000   0.00000  -0.70711
   0.00000   0.00000  -0.70711
 vibration     4
   0.00000  -0.70711   0.00000
   0.00000  -0.70711   0.00000
 vibration     5
  -0.70711   0.00000   0.00000
  -0.70711   0.00000   0.00000
 vibration     6
   0.00000   0.00000   0.79973
   0.00000   0.00000  -0.60036
