
     Program PWSCF v.5.1 starts on 18Jun2018 at  2:49:58 

     This program is part of the open-source Quantum ESPRESSO suite
     for quantum simulation of materials; please cite
         "P. Giannozzi et al., J. Phys.:Condens. Matter 21 395502 (2009);
          URL http://www.quantum-espresso.org", 
     in publications or presentations arising from this work. More details at
     http://www.quantum-espresso.org/quote

     Parallel version (MPI), running on     1 processors
     Waiting for input...
     Reading input from standard input
Warning: card &CELL ignored
Warning: card / ignored

     Current dimensions of program PWSCF are:
     Max number of different atomic species (ntypx) = 10
     Max number of k-points (npk) =  40000
     Max angular momentum in pseudopotentials (lmaxx) =  3

     Subspace diagonalization in iterative solution of the eigenvalue problem:
     a serial algorithm will be used

     Message from routine setup:
     no reason to have ecutrho>4*ecutwfc

     G-vector sticks info
     --------------------
     sticks:   dense  smooth     PW     G-vecs:    dense   smooth      PW
     Sum         649     313    109               100611    35335    6935



     bravais-lattice index     =            4
     lattice parameter (alat)  =       5.4490  a.u.
     unit-cell volume          =    1040.6536 (a.u.)^3
     number of atoms/cell      =            4
     number of atomic types    =            1
     number of electrons       =        76.00
     number of Kohn-Sham states=           46
     kinetic-energy cutoff     =      40.0000  Ry
     charge density cutoff     =     320.0000  Ry
     convergence threshold     =      1.0E-06
     mixing beta               =       0.7000
     number of iterations used =            8  plain     mixing
     Exchange-correlation      = PBE ( 1  4  3  4 0)
     nstep                     =           50


     celldm(1)=   5.449000  celldm(2)=   0.000000  celldm(3)=   7.427200
     celldm(4)=   0.000000  celldm(5)=   0.000000  celldm(6)=   0.000000

     crystal axes: (cart. coord. in units of alat)
               a(1) = (   1.000000   0.000000   0.000000 )  
               a(2) = (  -0.500000   0.866025   0.000000 )  
               a(3) = (   0.000000   0.000000   7.427200 )  

     reciprocal axes: (cart. coord. in units 2 pi/alat)
               b(1) = (  1.000000  0.577350 -0.000000 )  
               b(2) = (  0.000000  1.154701  0.000000 )  
               b(3) = (  0.000000 -0.000000  0.134640 )  


     PseudoPot. # 1 for Au read from file:
     /home/oropebuen/Documents/Job/Absortion/SSSP_efficiency_pseudos/Au_ONCV_PBE-1.0.upf
     MD5 check sum: 1009843a674e36925f098327e430af60
     Pseudo is Norm-conserving, Zval = 19.0
     Generated using ONCVPSP code by D. R. Hamann
     Using radial grid of  602 points,  8 beta functions with: 
                l(1) =   0
                l(2) =   0
                l(3) =   1
                l(4) =   1
                l(5) =   2
                l(6) =   2
                l(7) =   3
                l(8) =   3

     atomic species   valence    mass     pseudopotential
        Au            19.00   196.96600     Au( 1.00)

      6 Sym. Ops. (no inversion) found
          (note:  6 additional sym.ops. were found but ignored
           their fractional translations are incommensurate with FFT grid)


   Cartesian axes

     site n.     atom                  positions (alat units)
         1           Au  tau(   1) = (   0.0000000   0.0000000   0.0000000  )
         2           Au  tau(   2) = (   0.5000000   0.2886750   0.8164970  )
         3           Au  tau(   3) = (   0.0000000   0.5773500   1.6329930  )
         4           Au  tau(   4) = (   0.0000000   0.0000000   2.4494900  )

     number of k points=    20  gaussian smearing, width (Ry)=  0.0100
                       cart. coord. in units 2pi/alat
        k(    1) = (   0.0625000   0.1082532  -0.0673201), wk =   0.0625000
        k(    2) = (   0.0625000   0.2525907  -0.0673201), wk =   0.1250000
        k(    3) = (   0.0625000   0.3969283  -0.0673201), wk =   0.1250000
        k(    4) = (   0.0625000   0.5412659  -0.0673201), wk =   0.1250000
        k(    5) = (   0.0625000  -0.4690971  -0.0673201), wk =   0.1250000
        k(    6) = (   0.0625000  -0.3247595  -0.0673201), wk =   0.1250000
        k(    7) = (   0.0625000  -0.1804220  -0.0673201), wk =   0.1250000
        k(    8) = (   0.0625000  -0.0360844  -0.0673201), wk =   0.0625000
        k(    9) = (   0.1875000   0.3247595  -0.0673201), wk =   0.0625000
        k(   10) = (   0.1875000   0.4690971  -0.0673201), wk =   0.1250000
        k(   11) = (   0.1875000   0.6134347  -0.0673201), wk =   0.1250000
        k(   12) = (   0.1875000  -0.3969283  -0.0673201), wk =   0.1250000
        k(   13) = (   0.1875000  -0.2525907  -0.0673201), wk =   0.1250000
        k(   14) = (   0.1875000  -0.1082532  -0.0673201), wk =   0.0625000
        k(   15) = (   0.3125000   0.5412659  -0.0673201), wk =   0.0625000
        k(   16) = (   0.3125000   0.6856034  -0.0673201), wk =   0.1250000
        k(   17) = (   0.3125000  -0.3247595  -0.0673201), wk =   0.1250000
        k(   18) = (   0.3125000  -0.1804220  -0.0673201), wk =   0.0625000
        k(   19) = (   0.4375000   0.7577722  -0.0673201), wk =   0.0625000
        k(   20) = (   0.4375000  -0.2525907  -0.0673201), wk =   0.0625000

     Dense  grid:   100611 G-vectors     FFT dimensions: (  32,  32, 240)

     Smooth grid:    35335 G-vectors     FFT dimensions: (  24,  24, 180)

     Largest allocated arrays     est. size (Mb)     dimensions
        Kohn-Sham Wavefunctions         3.17 Mb     (    4520,   46)
        NL pseudopotentials             8.83 Mb     (    4520,  128)
        Each V/rho on FFT grid          3.75 Mb     (  245760)
        Each G-vector array             0.77 Mb     (  100611)
        G-vector shells                 0.04 Mb     (    4911)
     Largest temporary arrays     est. size (Mb)     dimensions
        Auxiliary wavefunctions        12.69 Mb     (    4520,  184)
        Each subspace H/S matrix        0.52 Mb     (     184,  184)
        Each <psi_i|beta_j> matrix      0.09 Mb     (     128,   46)
        Arrays for rho mixing          30.00 Mb     (  245760,    8)

     Initial potential from superposition of free atoms
     Check: negative starting charge=   -0.000157

     starting charge   75.91017, renormalised to   76.00000

     negative rho (up, down):  1.571E-04 0.000E+00
     Starting wfc are random

     total cpu time spent up to now is        8.7 secs

     per-process dynamical memory:   125.3 Mb

     Self-consistent Calculation

     iteration #  1     ecut=    40.00 Ry     beta=0.70
     Davidson diagonalization with overlap
     ethr =  1.00E-02,  avg # of iterations =  7.0

     Threshold (ethr) on eigenvalues was too large:
     Diagonalizing with lowered threshold

     Davidson diagonalization with overlap
     ethr =  2.74E-05,  avg # of iterations =  2.9

     negative rho (up, down):  8.338E-06 0.000E+00

     total cpu time spent up to now is      112.3 secs

     total energy              =   -1098.85022176 Ry
     Harris-Foulkes estimate   =   -1098.86235621 Ry
     estimated scf accuracy    <       0.02129385 Ry

     iteration #  2     ecut=    40.00 Ry     beta=0.70
     Davidson diagonalization with overlap
     ethr =  2.80E-05,  avg # of iterations =  4.2

     negative rho (up, down):  7.659E-06 0.000E+00

     total cpu time spent up to now is      142.5 secs

     total energy              =   -1098.84465700 Ry
     Harris-Foulkes estimate   =   -1098.86612472 Ry
     estimated scf accuracy    <       0.05081625 Ry

     iteration #  3     ecut=    40.00 Ry     beta=0.70
     Davidson diagonalization with overlap
     ethr =  2.80E-05,  avg # of iterations =  3.5

     negative rho (up, down):  7.605E-06 0.000E+00

     total cpu time spent up to now is      171.3 secs

     total energy              =   -1098.84800033 Ry
     Harris-Foulkes estimate   =   -1098.86676945 Ry
     estimated scf accuracy    <       0.10153167 Ry

     iteration #  4     ecut=    40.00 Ry     beta=0.70
     Davidson diagonalization with overlap
     ethr =  2.80E-05,  avg # of iterations =  3.3

     negative rho (up, down):  6.675E-07 0.000E+00

     total cpu time spent up to now is      198.3 secs

     total energy              =   -1098.85744302 Ry
     Harris-Foulkes estimate   =   -1098.85845462 Ry
     estimated scf accuracy    <       0.00372484 Ry

     iteration #  5     ecut=    40.00 Ry     beta=0.70
     Davidson diagonalization with overlap
     ethr =  4.90E-06,  avg # of iterations =  3.1

     total cpu time spent up to now is      225.8 secs

     total energy              =   -1098.85793893 Ry
     Harris-Foulkes estimate   =   -1098.85808878 Ry
     estimated scf accuracy    <       0.00034502 Ry

     iteration #  6     ecut=    40.00 Ry     beta=0.70
     Davidson diagonalization with overlap
     ethr =  4.54E-07,  avg # of iterations =  2.0

     total cpu time spent up to now is      251.5 secs

     total energy              =   -1098.85796119 Ry
     Harris-Foulkes estimate   =   -1098.85803728 Ry
     estimated scf accuracy    <       0.00053182 Ry

     iteration #  7     ecut=    40.00 Ry     beta=0.70
     Davidson diagonalization with overlap
     ethr =  4.54E-07,  avg # of iterations =  1.4

     total cpu time spent up to now is      272.6 secs

     total energy              =   -1098.85800124 Ry
     Harris-Foulkes estimate   =   -1098.85802223 Ry
     estimated scf accuracy    <       0.00020938 Ry

     iteration #  8     ecut=    40.00 Ry     beta=0.70
     Davidson diagonalization with overlap
     ethr =  2.75E-07,  avg # of iterations =  1.0

     total cpu time spent up to now is      292.9 secs

     total energy              =   -1098.85801191 Ry
     Harris-Foulkes estimate   =   -1098.85801229 Ry
     estimated scf accuracy    <       0.00000101 Ry

     iteration #  9     ecut=    40.00 Ry     beta=0.70
     Davidson diagonalization with overlap
     ethr =  1.32E-09,  avg # of iterations =  2.0

     total cpu time spent up to now is      318.1 secs

     End of self-consistent calculation

          k = 0.0625 0.1083-0.0673 (  4518 PWs)   bands (ev):

   -99.4727 -99.4665 -99.1005 -99.1002 -50.8422 -50.7428 -50.7131 -50.7069
   -50.6995 -50.6872 -50.3602 -50.3598 -50.3467 -50.3463 -50.3238 -50.3225
    -2.8516  -1.6734  -0.6374  -0.6359   1.3221   1.4129   1.4816   1.8438
     1.8697   1.8825   1.9267   2.0107   2.2379   2.3199   2.3758   2.9648
     3.0593   3.2458   3.4810   3.6553   3.7828   4.1827   4.2365   5.6414
     7.2853  10.9095  11.6672  12.0044  13.7750  14.2641

          k = 0.0625 0.2526-0.0673 (  4466 PWs)   bands (ev):

   -99.4698 -99.4645 -99.0980 -99.0977 -50.8300 -50.7796 -50.7523 -50.7286
   -50.7198 -50.7006 -50.4108 -50.4104 -50.3611 -50.3608 -50.3186 -50.3180
    -1.8117  -0.7744   0.0244   0.2308   0.7952   1.0966   1.1682   1.7271
     1.7381   1.8728   2.0854   2.2383   2.5111   2.6025   2.7597   2.8569
     3.0930   3.2920   3.4960   3.5527   3.8738   4.2275   4.7676   6.7232
     9.1980  11.6164  12.6208  12.8327  14.6682  15.0755

          k = 0.0625 0.3969-0.0673 (  4438 PWs)   bands (ev):

   -99.4662 -99.4621 -99.0951 -99.0948 -50.8394 -50.8343 -50.7849 -50.7417
   -50.7346 -50.7159 -50.4698 -50.4692 -50.3781 -50.3778 -50.3131 -50.3126
    -0.8151  -0.3749   0.0034   0.1602   0.4037   0.8870   1.4734   1.7641
     1.7936   1.9891   2.3830   2.7516   2.8947   3.1423   3.3692   3.5351
     3.7348   3.9571   4.0056   4.3240   4.3542   4.5003   5.8724   8.0764
    11.1343  12.6312  13.0549  13.6760  14.3556  14.4948

          k = 0.0625 0.5413-0.0673 (  4394 PWs)   bands (ev):

   -99.4641 -99.4609 -99.0934 -99.0931 -50.8721 -50.8612 -50.7765 -50.7537
   -50.7418 -50.7247 -50.5026 -50.5022 -50.3877 -50.3874 -50.3100 -50.3096
    -0.6794  -0.5169  -0.2201   0.0813   0.1767   0.6937   1.3965   1.5408
     1.8585   2.4101   2.5217   2.9723   3.5553   3.7710   4.0371   4.1140
     4.2390   4.3539   4.5331   4.6238   6.1814   6.8502   7.7388   8.4005
     9.8335  10.3840  10.9705  12.5775  14.5074  15.0712

          k = 0.0625-0.4691-0.0673 (  4416 PWs)   bands (ev):

   -99.4648 -99.4613 -99.0940 -99.0937 -50.8603 -50.8511 -50.7813 -50.7491
   -50.7389 -50.7216 -50.4912 -50.4906 -50.3843 -50.3840 -50.3111 -50.3106
    -0.6917  -0.4496  -0.1244   0.0871   0.2649   0.7612   1.4154   1.6398
     1.8962   2.2011   2.5078   2.8498   3.4456   3.5385   3.8023   3.9075
     4.0735   4.1467   4.2896   4.5011   5.0684   5.4972   6.8433   9.0231
    10.3100  11.2587  12.3106  13.6677  13.8819  14.8462

          k = 0.0625-0.3248-0.0673 (  4460 PWs)   bands (ev):

   -99.4679 -99.4632 -99.0965 -99.0962 -50.8272 -50.8090 -50.7762 -50.7338
   -50.7289 -50.7086 -50.4416 -50.4411 -50.3699 -50.3696 -50.3157 -50.3152
    -1.2095  -0.4429   0.0755   0.3794   0.5344   1.0410   1.2858   1.5835
     1.8953   2.0068   2.1663   2.4089   2.4986   2.7718   2.9700   3.1314
     3.5049   3.6061   3.7889   3.8536   3.9245   4.2647   5.2160   7.3326
    10.2560  12.2097  13.3440  13.5419  14.8066  15.3472

          k = 0.0625-0.1804-0.0673 (  4490 PWs)   bands (ev):

   -99.4715 -99.4656 -99.0995 -99.0991 -50.8365 -50.7553 -50.7262 -50.7223
   -50.7099 -50.6932 -50.3822 -50.3818 -50.3529 -50.3526 -50.3215 -50.3205
    -2.4053  -1.2586  -0.2883  -0.2290   1.0961   1.2348   1.3009   1.7783
     1.8182   1.9598   2.0183   2.1493   2.1632   2.5349   2.6388   2.8220
     3.0133   3.0732   3.3742   3.5811   3.8275   4.2124   4.4263   6.1623
     8.1739  11.1886  12.0509  12.3244  14.1383  14.5951

          k = 0.0625-0.0361-0.0673 (  4520 PWs)   bands (ev):

   -99.4734 -99.4670 -99.1011 -99.1008 -50.8454 -50.7392 -50.7048 -50.7014
   -50.6890 -50.6840 -50.3481 -50.3478 -50.3434 -50.3430 -50.3251 -50.3235
    -3.0870  -1.9010  -0.8637  -0.8371   1.4823   1.5055   1.5727   1.6995
     1.7551   1.8300   2.0240   2.0950   2.1448   2.2288   2.4284   3.0668
     3.0721   3.3822   3.4567   3.7411   3.9262   4.1067   4.2668   5.2639
     6.7044  10.7702  11.4753  11.8521  13.5932  14.0972

          k = 0.1875 0.3248-0.0673 (  4450 PWs)   bands (ev):

   -99.4668 -99.4625 -99.0956 -99.0952 -50.8278 -50.8157 -50.7864 -50.7398
   -50.7369 -50.7230 -50.4517 -50.4512 -50.3849 -50.3845 -50.3138 -50.3135
    -0.6975  -0.1131   0.4088   0.6399   0.6520   0.9783   1.2297   1.4153
     1.6653   1.7617   1.7778   2.2831   2.2944   2.6793   2.9947   3.3083
     3.5320   3.9855   4.0191   4.2252   4.4797   4.6419   5.8350   7.8907
    11.0634  12.6450  13.9301  13.9809  14.8736  14.9269

          k = 0.1875 0.4691-0.0673 (  4428 PWs)   bands (ev):

   -99.4641 -99.4609 -99.0934 -99.0931 -50.8501 -50.8420 -50.7864 -50.7659
   -50.7491 -50.7367 -50.4820 -50.4816 -50.4090 -50.4086 -50.3098 -50.3095
    -0.1643  -0.0589   0.2668   0.4731   0.7866   0.9438   1.1652   1.5444
     1.7749   2.0181   2.2089   2.5684   2.7559   2.8864   3.3156   3.4168
     3.5831   4.1082   4.3323   4.5236   6.1795   6.8186   8.0841   9.9308
    10.6268  11.5922  12.6788  13.2229  14.1116  14.6710

          k = 0.1875 0.6134-0.0673 (  4432 PWs)   bands (ev):

   -99.4634 -99.4606 -99.0929 -99.0926 -50.8575 -50.8471 -50.7849 -50.7737
   -50.7492 -50.7414 -50.4887 -50.4883 -50.4150 -50.4146 -50.3089 -50.3086
    -0.1513  -0.1149   0.1980   0.5605   0.6992   0.8957   1.0767   1.6264
     1.9461   2.0059   2.1440   2.7828   2.9667   3.1342   3.3912   3.6230
     3.8468   4.1267   4.2225   4.4389   7.3517   8.1544   8.8837   9.3419
    10.0893  11.0287  11.3989  12.6725  14.0624  14.9957

          k = 0.1875-0.3969-0.0673 (  4450 PWs)   bands (ev):

   -99.4653 -99.4616 -99.0944 -99.0940 -50.8379 -50.8317 -50.7886 -50.7532
   -50.7445 -50.7309 -50.4692 -50.4688 -50.3982 -50.3978 -50.3115 -50.3112
    -0.2810  -0.0210   0.3232   0.4730   0.8482   0.9857   1.2435   1.4390
     1.5886   2.0616   2.1167   2.1927   2.3860   2.7204   3.1484   3.3364
     3.4971   4.0748   4.2884   4.4323   5.2382   5.6355   6.8265   8.7951
    11.9765  12.6469  13.2402  13.9005  14.2526  14.8833

          k = 0.1875-0.2526-0.0673 (  4452 PWs)   bands (ev):

   -99.4684 -99.4635 -99.0968 -99.0965 -50.8262 -50.7976 -50.7726 -50.7320
   -50.7279 -50.7116 -50.4314 -50.4309 -50.3717 -50.3713 -50.3163 -50.3159
    -1.2777  -0.3923   0.3009   0.5120   0.7412   0.9258   1.1071   1.5179
     1.6734   1.7761   1.9285   2.2224   2.4558   2.7058   2.8696   3.0668
     3.5147   3.6294   3.8218   3.8877   3.8918   4.1540   5.1810   7.2220
    10.0696  12.0600  13.1930  13.3501  15.1416  15.4788

          k = 0.1875-0.1083-0.0673 (  4480 PWs)   bands (ev):

   -99.4709 -99.4652 -99.0990 -99.0986 -50.8341 -50.7643 -50.7345 -50.7254
   -50.7145 -50.6943 -50.3932 -50.3928 -50.3549 -50.3546 -50.3205 -50.3197
    -2.2018  -1.0887  -0.1893  -0.0612   0.9490   1.2147   1.2750   1.7663
     1.8398   1.9527   2.0767   2.2302   2.2693   2.5591   2.6861   2.7537
     3.0316   3.0749   3.4032   3.4359   3.9088   4.2948   4.4847   6.3614
     8.5364  11.3294  12.2402  12.4916  14.3159  14.7582

          k = 0.3125 0.5413-0.0673 (  4434 PWs)   bands (ev):

   -99.4628 -99.4603 -99.0925 -99.0922 -50.8359 -50.8294 -50.8170 -50.7920
   -50.7537 -50.7471 -50.4677 -50.4673 -50.4479 -50.4475 -50.3080 -50.3077
     0.2491   0.2987   0.4770   0.8161   0.8825   1.0620   1.0829   1.6895
     1.7262   2.1930   2.2574   2.3939   2.4325   2.8189   3.1677   3.1852
     3.8000   4.0792   4.1031   4.2112   8.4037   9.3308   9.5445   9.6376
    10.9244  11.1590  11.9709  12.5834  13.0422  13.6280

          k = 0.3125 0.6856-0.0673 (  4444 PWs)   bands (ev):

   -99.4632 -99.4605 -99.0928 -99.0925 -50.8459 -50.8375 -50.8000 -50.7772
   -50.7570 -50.7419 -50.4779 -50.4775 -50.4291 -50.4286 -50.3086 -50.3083
     0.0758   0.1346   0.4720   0.6942   0.8588   1.0430   1.0931   1.5653
     1.7208   2.0941   2.2394   2.4583   2.5976   2.7862   3.2053   3.2932
     3.6618   4.0901   4.2402   4.4202   7.2691   8.1613   9.4336   9.9868
    10.6914  11.4592  11.7368  12.8950  13.2153  15.0693

          k = 0.3125-0.3248-0.0673 (  4428 PWs)   bands (ev):

   -99.4651 -99.4615 -99.0942 -99.0939 -50.8477 -50.8405 -50.7841 -50.7539
   -50.7380 -50.7279 -50.4791 -50.4786 -50.3912 -50.3908 -50.3114 -50.3110
    -0.4998  -0.2107   0.0725   0.2729   0.5647   0.8648   1.3257   1.6579
     1.8195   1.9620   2.2748   2.7060   2.8657   3.0329   3.3815   3.4621
     3.6878   4.1017   4.2581   4.4466   5.1740   5.5645   6.8107   8.8653
    11.2673  12.0568  12.9380  13.6553  14.1580  15.0565

          k = 0.3125-0.1804-0.0673 (  4442 PWs)   bands (ev):

   -99.4672 -99.4628 -99.0959 -99.0956 -50.8307 -50.8236 -50.7822 -50.7344
   -50.7327 -50.7091 -50.4562 -50.4556 -50.3711 -50.3708 -50.3146 -50.3141
    -1.0581  -0.4575  -0.0186   0.2220   0.3901   0.9636   1.5530   1.6462
     1.8794   2.0157   2.3860   2.7218   2.7784   2.9853   3.2204   3.3951
     3.5527   3.7536   3.8083   3.8484   3.9595   4.3411   5.3853   7.5923
    10.6312  12.5078  13.6126  13.7151  14.0103  14.8922

          k = 0.4375 0.7578-0.0673 (  4424 PWs)   bands (ev):

   -99.4637 -99.4607 -99.0932 -99.0928 -50.8678 -50.8568 -50.7744 -50.7675
   -50.7413 -50.7358 -50.4985 -50.4982 -50.3993 -50.3989 -50.3094 -50.3090
    -0.4618  -0.3363  -0.0941   0.3039   0.3947   0.7534   1.2313   1.6077
     1.9145   2.2595   2.2641   2.9462   3.3660   3.5782   3.6894   3.9263
     4.1018   4.2382   4.3100   4.4927   7.2423   7.7192   8.1754   8.5026
     9.9742  10.3212  11.2440  12.3005  14.5681  15.5169

          k = 0.4375-0.2526-0.0673 (  4396 PWs)   bands (ev):

   -99.4645 -99.4611 -99.0937 -99.0934 -50.8694 -50.8590 -50.7790 -50.7454
   -50.7431 -50.7197 -50.4999 -50.4994 -50.3826 -50.3822 -50.3106 -50.3101
    -0.7595  -0.5645  -0.2226   0.0032   0.1294   0.7001   1.4508   1.5695
     1.8484   2.4001   2.6732   2.8716   3.6084   3.7634   4.1298   4.1558
     4.2234   4.3934   4.6301   4.6607   5.2065   5.8544   7.1140   8.9780
     9.7905  10.5015  11.5692  13.1729  14.1843  14.6997

     the Fermi energy is     6.1735 ev

!    total energy              =   -1098.85801197 Ry
     Harris-Foulkes estimate   =   -1098.85801217 Ry
     estimated scf accuracy    <       0.00000022 Ry

     The total energy is the sum of the following terms:

     one-electron contribution =   -6540.52083329 Ry
     hartree contribution      =    3266.34221095 Ry
     xc contribution           =    -101.47846851 Ry
     ewald contribution        =    2276.80016239 Ry
     smearing contrib. (-TS)   =      -0.00108351 Ry

     convergence has been achieved in   9 iterations

     Forces acting on atoms (Ry/au):

     atom    1 type  1   force =     0.00000000   -0.00000000   -0.01818680
     atom    2 type  1   force =     0.00000000    0.00000000    0.00430472
     atom    3 type  1   force =     0.00000000   -0.00000000   -0.00434480
     atom    4 type  1   force =     0.00000000   -0.00000000    0.01822688

     Total force =     0.026465     Total SCF correction =     0.004682
     SCF correction compared to forces is large: reduce conv_thr to get better values

     BFGS Geometry Optimization

     number of scf cycles    =   1
     number of bfgs steps    =   0

     energy   new            =   -1098.8580119702 Ry

     new trust radius        =       0.0182268808 bohr
     new conv_thr            =       0.0000010000 Ry


ATOMIC_POSITIONS (alat)
Au       0.000000000  -0.000000000  -0.003337640
Au       0.500000000   0.288675000   0.817287002
Au       0.000000000   0.577350000   1.632195642
Au       0.000000000  -0.000000000   2.452834996



     Writing output data file Au.save
     Check: negative starting charge=   -0.000157
     NEW-OLD atomic charge density approx. for the potential
     Check: negative starting charge=   -0.000159

     negative rho (up, down):  2.199E-06 0.000E+00

     total cpu time spent up to now is      322.3 secs

     per-process dynamical memory:   145.4 Mb

     Self-consistent Calculation

     iteration #  1     ecut=    40.00 Ry     beta=0.70
     Davidson diagonalization with overlap
     ethr =  1.00E-06,  avg # of iterations =  4.0

     Threshold (ethr) on eigenvalues was too large:
     Diagonalizing with lowered threshold

     Davidson diagonalization with overlap
     ethr =  8.54E-08,  avg # of iterations =  1.0

     negative rho (up, down):  2.577E-08 0.000E+00

     total cpu time spent up to now is      387.4 secs

     total energy              =   -1098.85861961 Ry
     Harris-Foulkes estimate   =   -1098.85867496 Ry
     estimated scf accuracy    <       0.00006566 Ry

     iteration #  2     ecut=    40.00 Ry     beta=0.70
     Davidson diagonalization with overlap
     ethr =  8.64E-08,  avg # of iterations =  3.2

     negative rho (up, down):  2.963E-08 0.000E+00

     total cpu time spent up to now is      416.2 secs

     total energy              =   -1098.85846818 Ry
     Harris-Foulkes estimate   =   -1098.85885719 Ry
     estimated scf accuracy    <       0.00221545 Ry

     iteration #  3     ecut=    40.00 Ry     beta=0.70
     Davidson diagonalization with overlap
     ethr =  8.64E-08,  avg # of iterations =  2.7

     negative rho (up, down):  2.377E-08 0.000E+00

     total cpu time spent up to now is      442.8 secs

     total energy              =   -1098.85865413 Ry
     Harris-Foulkes estimate   =   -1098.85867143 Ry
     estimated scf accuracy    <       0.00006028 Ry

     iteration #  4     ecut=    40.00 Ry     beta=0.70
     Davidson diagonalization with overlap
     ethr =  7.93E-08,  avg # of iterations =  2.0

     negative rho (up, down):  2.021E-08 0.000E+00

     total cpu time spent up to now is      465.5 secs

     total energy              =   -1098.85865517 Ry
     Harris-Foulkes estimate   =   -1098.85867004 Ry
     estimated scf accuracy    <       0.00013022 Ry

     iteration #  5     ecut=    40.00 Ry     beta=0.70
     Davidson diagonalization with overlap
     ethr =  7.93E-08,  avg # of iterations =  1.0

     total cpu time spent up to now is      485.9 secs

     total energy              =   -1098.85866254 Ry
     Harris-Foulkes estimate   =   -1098.85866479 Ry
     estimated scf accuracy    <       0.00001391 Ry

     iteration #  6     ecut=    40.00 Ry     beta=0.70
     Davidson diagonalization with overlap
     ethr =  1.83E-08,  avg # of iterations =  1.6

     total cpu time spent up to now is      507.1 secs

     total energy              =   -1098.85866356 Ry
     Harris-Foulkes estimate   =   -1098.85866416 Ry
     estimated scf accuracy    <       0.00000179 Ry

     iteration #  7     ecut=    40.00 Ry     beta=0.70
     Davidson diagonalization with overlap
     ethr =  2.36E-09,  avg # of iterations =  2.0

     total cpu time spent up to now is      531.8 secs

     End of self-consistent calculation

          k = 0.0625 0.1083-0.0673 (  4518 PWs)   bands (ev):

   -99.4765 -99.4706 -99.0973 -99.0973 -50.8448 -50.7444 -50.7166 -50.7110
   -50.7034 -50.6911 -50.3572 -50.3571 -50.3437 -50.3436 -50.3187 -50.3175
    -2.8444  -1.6539  -0.6332  -0.6328   1.3193   1.4125   1.4858   1.8428
     1.8718   1.8804   1.9379   2.0124   2.2410   2.3258   2.3854   2.9628
     3.0561   3.2536   3.4842   3.6523   3.7807   4.1766   4.2279   5.6302
     7.2741  10.8980  11.6659  11.9950  13.7696  14.2588

          k = 0.0625 0.2526-0.0673 (  4466 PWs)   bands (ev):

   -99.4735 -99.4686 -99.0948 -99.0948 -50.8328 -50.7832 -50.7559 -50.7303
   -50.7238 -50.7045 -50.4080 -50.4077 -50.3581 -50.3580 -50.3135 -50.3130
    -1.8046  -0.7538   0.0284   0.2357   0.8024   1.1007   1.1777   1.7260
     1.7457   1.8739   2.0915   2.2373   2.5145   2.6022   2.7700   2.8593
     3.0994   3.2924   3.4872   3.5498   3.8661   4.2181   4.7560   6.7052
     9.1845  11.6027  12.6178  12.8273  14.6654  15.0679

          k = 0.0625 0.3969-0.0673 (  4438 PWs)   bands (ev):

   -99.4698 -99.4664 -99.0919 -99.0918 -50.8434 -50.8381 -50.7873 -50.7452
   -50.7368 -50.7197 -50.4670 -50.4666 -50.3751 -50.3751 -50.3077 -50.3074
    -0.8098  -0.3659   0.0099   0.1740   0.4146   0.9049   1.4733   1.7685
     1.7920   1.9952   2.3887   2.7688   2.9019   3.1440   3.3674   3.5296
     3.7261   3.9565   3.9972   4.3150   4.3525   4.5016   5.8539   8.0554
    11.1237  12.6275  13.0409  13.6743  14.3548  14.4911

          k = 0.0625 0.5413-0.0673 (  4394 PWs)   bands (ev):

   -99.4674 -99.4654 -99.0902 -99.0902 -50.8762 -50.8652 -50.7786 -50.7574
   -50.7439 -50.7285 -50.4999 -50.4997 -50.3847 -50.3847 -50.3046 -50.3043
    -0.6741  -0.5135  -0.2152   0.0966   0.1903   0.7164   1.3985   1.5345
     1.8642   2.4132   2.5395   2.9763   3.5498   3.7684   4.0363   4.1077
     4.2322   4.3497   4.5327   4.6213   6.1807   6.8524   7.7340   8.3971
     9.8265  10.3724  10.9662  12.5494  14.4874  15.0495

          k = 0.0625-0.4691-0.0673 (  4416 PWs)   bands (ev):

   -99.4683 -99.4657 -99.0908 -99.0908 -50.8643 -50.8550 -50.7835 -50.7528
   -50.7410 -50.7254 -50.4885 -50.4881 -50.3813 -50.3813 -50.3057 -50.3054
    -0.6866  -0.4451  -0.1198   0.1045   0.2771   0.7823   1.4161   1.6356
     1.9017   2.2054   2.5210   2.8586   3.4508   3.5348   3.8018   3.8990
     4.0683   4.1387   4.2887   4.4962   5.0664   5.4998   6.8281   9.0042
    10.3083  11.2556  12.3096  13.6423  13.8674  14.8375

          k = 0.0625-0.3248-0.0673 (  4460 PWs)   bands (ev):

   -99.4716 -99.4674 -99.0933 -99.0932 -50.8304 -50.8129 -50.7793 -50.7363
   -50.7320 -50.7124 -50.4388 -50.4384 -50.3669 -50.3669 -50.3104 -50.3101
    -1.2030  -0.4258   0.0811   0.3855   0.5458   1.0544   1.2908   1.5829
     1.8966   2.0121   2.1736   2.4144   2.5013   2.7824   2.9654   3.1336
     3.5091   3.5971   3.7900   3.8498   3.9154   4.2547   5.1996   7.3121
    10.2425  12.1958  13.3403  13.5379  14.8038  15.3424

          k = 0.0625-0.1804-0.0673 (  4490 PWs)   bands (ev):

   -99.4752 -99.4697 -99.0963 -99.0962 -50.8392 -50.7581 -50.7298 -50.7249
   -50.7140 -50.6971 -50.3793 -50.3791 -50.3499 -50.3499 -50.3164 -50.3155
    -2.3980  -1.2383  -0.2847  -0.2242   1.0959   1.2399   1.3071   1.7873
     1.8198   1.9571   2.0214   2.1476   2.1625   2.5455   2.6506   2.8230
     3.0132   3.0750   3.3684   3.5790   3.8239   4.2036   4.4185   6.1477
     8.1613  11.1758  12.0489  12.3169  14.1342  14.5890

          k = 0.0625-0.0361-0.0673 (  4520 PWs)   bands (ev):

   -99.4772 -99.4711 -99.0979 -99.0979 -50.8480 -50.7402 -50.7087 -50.7056
   -50.6929 -50.6879 -50.3451 -50.3451 -50.3404 -50.3403 -50.3200 -50.3186
    -3.0799  -1.8819  -0.8600  -0.8342   1.4793   1.5017   1.5729   1.6986
     1.7562   1.8269   2.0349   2.1020   2.1558   2.2375   2.4275   3.0630
     3.0683   3.3921   3.4660   3.7383   3.9236   4.0992   4.2584   5.2551
     6.6944  10.7596  11.4743  11.8416  13.5870  14.0923

          k = 0.1875 0.3248-0.0673 (  4450 PWs)   bands (ev):

   -99.4703 -99.4667 -99.0924 -99.0923 -50.8314 -50.8196 -50.7893 -50.7436
   -50.7392 -50.7262 -50.4489 -50.4486 -50.3819 -50.3818 -50.3084 -50.3083
    -0.6912  -0.0945   0.4157   0.6396   0.6627   0.9956   1.2404   1.4234
     1.6660   1.7687   1.7853   2.2780   2.2979   2.6838   2.9929   3.3051
     3.5249   3.9748   4.0207   4.2177   4.4764   4.6445   5.8177   7.8701
    11.0497  12.6319  13.9246  13.9792  14.8704  14.9276

          k = 0.1875 0.4691-0.0673 (  4428 PWs)   bands (ev):

   -99.4674 -99.4654 -99.0902 -99.0902 -50.8541 -50.8460 -50.7895 -50.7691
   -50.7523 -50.7388 -50.4792 -50.4790 -50.4060 -50.4059 -50.3044 -50.3043
    -0.1593  -0.0516   0.2691   0.4939   0.8023   0.9633   1.1721   1.5498
     1.7766   2.0204   2.2142   2.5783   2.7613   2.8878   3.3061   3.4116
     3.5704   4.1004   4.3254   4.5159   6.1781   6.8215   8.0707   9.9137
    10.6251  11.5917  12.6750  13.2173  14.0921  14.6584

          k = 0.1875 0.6134-0.0673 (  4432 PWs)   bands (ev):

   -99.4667 -99.4652 -99.0897 -99.0897 -50.8616 -50.8510 -50.7887 -50.7764
   -50.7523 -50.7435 -50.4859 -50.4858 -50.4121 -50.4119 -50.3034 -50.3034
    -0.1454  -0.1086   0.2002   0.5806   0.7173   0.9166   1.0805   1.6316
     1.9464   2.0123   2.1481   2.7885   2.9706   3.1368   3.3845   3.6159
     3.8365   4.1185   4.2148   4.4306   7.3510   8.1576   8.8831   9.3359
    10.0839  11.0160  11.3900  12.6611  14.0443  14.9924

          k = 0.1875-0.3969-0.0673 (  4450 PWs)   bands (ev):

   -99.4688 -99.4659 -99.0912 -99.0911 -50.8418 -50.8356 -50.7914 -50.7566
   -50.7477 -50.7333 -50.4664 -50.4662 -50.3952 -50.3951 -50.3061 -50.3060
    -0.2765  -0.0087   0.3319   0.4841   0.8600   1.0038   1.2530   1.4415
     1.5954   2.0652   2.1235   2.1972   2.3879   2.7216   3.1457   3.3288
     3.4864   4.0657   4.2854   4.4250   5.2356   5.6384   6.8110   8.7754
    11.9659  12.6422  13.2364  13.8939  14.2504  14.8798

          k = 0.1875-0.2526-0.0673 (  4452 PWs)   bands (ev):

   -99.4720 -99.4677 -99.0936 -99.0936 -50.8293 -50.8014 -50.7759 -50.7343
   -50.7313 -50.7154 -50.4285 -50.4282 -50.3687 -50.3686 -50.3110 -50.3107
    -1.2707  -0.3712   0.3030   0.5149   0.7570   0.9302   1.1161   1.5249
     1.6773   1.7772   1.9377   2.2195   2.4589   2.7093   2.8700   3.0682
     3.5173   3.6253   3.8223   3.8804   3.8872   4.1450   5.1650   7.2021
    10.0558  12.0462  13.1891  13.3462  15.1404  15.4698

          k = 0.1875-0.1083-0.0673 (  4480 PWs)   bands (ev):

   -99.4746 -99.4693 -99.0958 -99.0957 -50.8368 -50.7676 -50.7380 -50.7275
   -50.7187 -50.6982 -50.3903 -50.3901 -50.3519 -50.3518 -50.3154 -50.3146
    -2.1946  -1.0683  -0.1852  -0.0564   0.9521   1.2180   1.2850   1.7659
     1.8468   1.9506   2.0809   2.2276   2.2683   2.5727   2.6889   2.7650
     3.0315   3.0740   3.4067   3.4239   3.9023   4.2849   4.4775   6.3454
     8.5234  11.3161  12.2378  12.4849  14.3123  14.7516

          k = 0.3125 0.5413-0.0673 (  4434 PWs)   bands (ev):

   -99.4658 -99.4652 -99.0893 -99.0892 -50.8399 -50.8334 -50.8210 -50.7956
   -50.7557 -50.7491 -50.4649 -50.4646 -50.4451 -50.4448 -50.3025 -50.3024
     0.2531   0.3084   0.4781   0.8370   0.9012   1.0718   1.1058   1.6972
     1.7337   2.1972   2.2600   2.3990   2.4359   2.8200   3.1535   3.1699
     3.7908   4.0730   4.0937   4.2030   8.4028   9.3286   9.5437   9.6343
    10.9237  11.1526  11.9679  12.5721  13.0340  13.6194

          k = 0.3125 0.6856-0.0673 (  4444 PWs)   bands (ev):

   -99.4665 -99.4651 -99.0896 -99.0896 -50.8499 -50.8415 -50.8038 -50.7807
   -50.7594 -50.7438 -50.4751 -50.4749 -50.4262 -50.4259 -50.3032 -50.3031
     0.0795   0.1437   0.4760   0.7104   0.8773   1.0609   1.1090   1.5722
     1.7232   2.1009   2.2392   2.4656   2.6018   2.7863   3.1927   3.2839
     3.6518   4.0834   4.2309   4.4120   7.2684   8.1633   9.4210   9.9835
    10.6895  11.4495  11.7338  12.8873  13.2104  15.0609

          k = 0.3125-0.3248-0.0673 (  4428 PWs)   bands (ev):

   -99.4686 -99.4658 -99.0910 -99.0910 -50.8517 -50.8444 -50.7866 -50.7575
   -50.7403 -50.7313 -50.4763 -50.4760 -50.3882 -50.3881 -50.3060 -50.3058
    -0.4946  -0.2035   0.0758   0.2923   0.5773   0.8828   1.3306   1.6600
     1.8187   1.9667   2.2838   2.7179   2.8726   3.0344   3.3760   3.4548
     3.6778   4.0920   4.2552   4.4401   5.1714   5.5675   6.7951   8.8456
    11.2641  12.0513  12.9347  13.6449  14.1450  15.0506

          k = 0.3125-0.1804-0.0673 (  4442 PWs)   bands (ev):

   -99.4708 -99.4670 -99.0927 -99.0926 -50.8343 -50.8274 -50.7849 -50.7369
   -50.7359 -50.7130 -50.4534 -50.4529 -50.3681 -50.3681 -50.3093 -50.3089
    -1.0523  -0.4451  -0.0103   0.2304   0.4006   0.9806   1.5494   1.6512
     1.8803   2.0218   2.3871   2.7429   2.7857   2.9881   3.2236   3.3871
     3.5553   3.7418   3.8048   3.8500   3.9531   4.3301   5.3674   7.5712
    10.6185  12.4939  13.6115  13.7091  14.0062  14.8915

          k = 0.4375 0.7578-0.0673 (  4424 PWs)   bands (ev):

   -99.4670 -99.4652 -99.0900 -99.0899 -50.8719 -50.8607 -50.7766 -50.7713
   -50.7433 -50.7394 -50.4957 -50.4957 -50.3963 -50.3962 -50.3039 -50.3038
    -0.4561  -0.3315  -0.0904   0.3199   0.4104   0.7760   1.2342   1.6036
     1.9192   2.2624   2.2785   2.9513   3.3629   3.5780   3.6908   3.9215
     4.0934   4.2302   4.3052   4.4854   7.2419   7.7201   8.1770   8.5026
     9.9620  10.3115  11.2402  12.2705  14.5519  15.4945

          k = 0.4375-0.2526-0.0673 (  4396 PWs)   bands (ev):

   -99.4679 -99.4655 -99.0905 -99.0905 -50.8734 -50.8629 -50.7811 -50.7496
   -50.7446 -50.7235 -50.4972 -50.4969 -50.3796 -50.3795 -50.3052 -50.3049
    -0.7544  -0.5610  -0.2175   0.0191   0.1419   0.7223   1.4485   1.5665
     1.8550   2.4018   2.6972   2.8714   3.6036   3.7613   4.1225   4.1507
     4.2201   4.3888   4.6328   4.6609   5.2056   5.8559   7.1019   8.9684
     9.7822  10.4974  11.5669  13.1451  14.1674  14.6841

     the Fermi energy is     6.1676 ev

!    total energy              =   -1098.85866383 Ry
     Harris-Foulkes estimate   =   -1098.85866387 Ry
     estimated scf accuracy    <       0.00000006 Ry

     The total energy is the sum of the following terms:

     one-electron contribution =   -6520.78125929 Ry
     hartree contribution      =    3256.47733552 Ry
     xc contribution           =    -101.47269898 Ry
     ewald contribution        =    2266.91903882 Ry
     smearing contrib. (-TS)   =      -0.00107990 Ry

     convergence has been achieved in   7 iterations

     Forces acting on atoms (Ry/au):

     atom    1 type  1   force =     0.00000000   -0.00000000   -0.01633182
     atom    2 type  1   force =     0.00000000   -0.00000000    0.00144703
     atom    3 type  1   force =     0.00000000    0.00000000   -0.00136856
     atom    4 type  1   force =     0.00000000    0.00000000    0.01625335

     Total force =     0.023127     Total SCF correction =     0.001131

     number of scf cycles    =   2
     number of bfgs steps    =   1

     energy   old            =   -1098.8580119702 Ry
     energy   new            =   -1098.8586638292 Ry

     CASE: energy  _new < energy  _old


     WARNING: bfgs curvature condition failed, Theta= 0.925
     new trust radius        =       0.0273403212 bohr
     new conv_thr            =       0.0000000652 Ry


ATOMIC_POSITIONS (alat)
Au       0.000000000  -0.000000000  -0.008355133
Au       0.500000000   0.288675000   0.817866834
Au       0.000000000   0.577350000   1.631633517
Au       0.000000000   0.000000000   2.457834783



     Writing output data file Au.save
     Check: negative starting charge=   -0.000159
     NEW-OLD atomic charge density approx. for the potential
     Check: negative starting charge=   -0.000160

     negative rho (up, down):  4.955E-06 0.000E+00

     total cpu time spent up to now is      536.6 secs

     per-process dynamical memory:   145.4 Mb

     Self-consistent Calculation

     iteration #  1     ecut=    40.00 Ry     beta=0.70
     Davidson diagonalization with overlap
     ethr =  1.00E-06,  avg # of iterations =  4.1

     negative rho (up, down):  1.620E-07 0.000E+00

     total cpu time spent up to now is      591.6 secs

     total energy              =   -1098.85939331 Ry
     Harris-Foulkes estimate   =   -1098.85949771 Ry
     estimated scf accuracy    <       0.00012545 Ry

     iteration #  2     ecut=    40.00 Ry     beta=0.70
     Davidson diagonalization with overlap
     ethr =  1.65E-07,  avg # of iterations =  3.4

     negative rho (up, down):  1.458E-07 0.000E+00

     total cpu time spent up to now is      628.1 secs

     total energy              =   -1098.85909056 Ry
     Harris-Foulkes estimate   =   -1098.85985980 Ry
     estimated scf accuracy    <       0.00447639 Ry

     iteration #  3     ecut=    40.00 Ry     beta=0.70
     Davidson diagonalization with overlap
     ethr =  1.65E-07,  avg # of iterations =  3.0

     negative rho (up, down):  7.296E-08 0.000E+00

     total cpu time spent up to now is      659.7 secs

     total energy              =   -1098.85946616 Ry
     Harris-Foulkes estimate   =   -1098.85948690 Ry
     estimated scf accuracy    <       0.00006489 Ry

     iteration #  4     ecut=    40.00 Ry     beta=0.70
     Davidson diagonalization with overlap
     ethr =  8.54E-08,  avg # of iterations =  2.0

     negative rho (up, down):  5.113E-08 0.000E+00

     total cpu time spent up to now is      689.2 secs

     total energy              =   -1098.85947069 Ry
     Harris-Foulkes estimate   =   -1098.85947919 Ry
     estimated scf accuracy    <       0.00004187 Ry

     iteration #  5     ecut=    40.00 Ry     beta=0.70
     Davidson diagonalization with overlap
     ethr =  5.51E-08,  avg # of iterations =  1.0

     total cpu time spent up to now is      713.2 secs

     total energy              =   -1098.85947301 Ry
     Harris-Foulkes estimate   =   -1098.85948113 Ry
     estimated scf accuracy    <       0.00008383 Ry

     iteration #  6     ecut=    40.00 Ry     beta=0.70
     Davidson diagonalization with overlap
     ethr =  5.51E-08,  avg # of iterations =  1.0

     total cpu time spent up to now is      735.5 secs

     total energy              =   -1098.85947689 Ry
     Harris-Foulkes estimate   =   -1098.85947716 Ry
     estimated scf accuracy    <       0.00000062 Ry

     iteration #  7     ecut=    40.00 Ry     beta=0.70
     Davidson diagonalization with overlap
     ethr =  8.15E-10,  avg # of iterations =  2.0

     total cpu time spent up to now is      765.7 secs

     total energy              =   -1098.85947702 Ry
     Harris-Foulkes estimate   =   -1098.85947708 Ry
     estimated scf accuracy    <       0.00000018 Ry

     iteration #  8     ecut=    40.00 Ry     beta=0.70
     Davidson diagonalization with overlap
     ethr =  2.42E-10,  avg # of iterations =  2.0

     total cpu time spent up to now is      792.9 secs

     End of self-consistent calculation

          k = 0.0625 0.1083-0.0673 (  4518 PWs)   bands (ev):

   -99.4803 -99.4744 -99.0908 -99.0907 -50.8461 -50.7453 -50.7198 -50.7152
   -50.7074 -50.6952 -50.3513 -50.3511 -50.3377 -50.3376 -50.3097 -50.3086
    -2.8305  -1.6275  -0.6264  -0.6264   1.3191   1.4125   1.4923   1.8434
     1.8774   1.8790   1.9540   2.0163   2.2455   2.3361   2.3989   2.9621
     3.0535   3.2653   3.4898   3.6507   3.7802   4.1687   4.2167   5.6143
     7.2584  10.8791  11.6636  11.9796  13.7598  14.2509

          k = 0.0625 0.2526-0.0673 (  4466 PWs)   bands (ev):

   -99.4773 -99.4724 -99.0883 -99.0882 -50.8344 -50.7867 -50.7595 -50.7313
   -50.7279 -50.7085 -50.4021 -50.4018 -50.3522 -50.3521 -50.3043 -50.3039
    -1.7906  -0.7254   0.0365   0.2438   0.8140   1.1081   1.1925   1.7252
     1.7563   1.8779   2.1030   2.2370   2.5206   2.6039   2.7836   2.8640
     3.1090   3.2949   3.4764   3.5482   3.8583   4.2055   4.7397   6.6785
     9.1653  11.5813  12.6132  12.8185  14.6602  15.0568

          k = 0.0625 0.3969-0.0673 (  4438 PWs)   bands (ev):

   -99.4736 -99.4702 -99.0854 -99.0853 -50.8472 -50.8415 -50.7890 -50.7490
   -50.7379 -50.7236 -50.4613 -50.4609 -50.3692 -50.3691 -50.2985 -50.2982
    -0.7985  -0.3513   0.0218   0.1945   0.4299   0.9298   1.4746   1.7772
     1.7927   2.0066   2.3978   2.7927   2.9121   3.1477   3.3666   3.5237
     3.7166   3.9536   3.9899   4.3024   4.3516   4.5047   5.8290   8.0233
    11.1088  12.6229  13.0205  13.6718  14.3525  14.4852

          k = 0.0625 0.5413-0.0673 (  4394 PWs)   bands (ev):

   -99.4712 -99.4691 -99.0837 -99.0836 -50.8802 -50.8689 -50.7798 -50.7611
   -50.7450 -50.7324 -50.4943 -50.4941 -50.3788 -50.3787 -50.2952 -50.2949
    -0.6632  -0.5056  -0.2048   0.1174   0.2094   0.7475   1.4042   1.5270
     1.8753   2.4206   2.5639   2.9841   3.5454   3.7647   4.0352   4.1005
     4.2241   4.3441   4.5340   4.6192   6.1815   6.8560   7.7287   8.3935
     9.8163  10.3568  10.9581  12.5102  14.4577  15.0168

          k = 0.0625-0.4691-0.0673 (  4416 PWs)   bands (ev):

   -99.4721 -99.4695 -99.0843 -99.0842 -50.8684 -50.8586 -50.7848 -50.7565
   -50.7420 -50.7293 -50.4828 -50.4824 -50.3754 -50.3753 -50.2963 -50.2961
    -0.6759  -0.4359  -0.1097   0.1283   0.2940   0.8111   1.4193   1.6316
     1.9127   2.2145   2.5391   2.8726   3.4580   3.5323   3.8016   3.8896
     4.0620   4.1290   4.2883   4.4905   5.0649   5.5040   6.8083   8.9752
    10.3074  11.2522  12.3069  13.6087  13.8450  14.8238

          k = 0.0625-0.3248-0.0673 (  4460 PWs)   bands (ev):

   -99.4754 -99.4712 -99.0868 -99.0867 -50.8327 -50.8166 -50.7821 -50.7395
   -50.7338 -50.7164 -50.4330 -50.4326 -50.3610 -50.3609 -50.3012 -50.3009
    -1.1899  -0.4014   0.0916   0.3958   0.5618   1.0735   1.3006   1.5834
     1.8998   2.0224   2.1850   2.4226   2.5065   2.7978   2.9596   3.1388
     3.5145   3.5873   3.7928   3.8466   3.9055   4.2411   5.1771   7.2813
    10.2232  12.1745  13.3347  13.5313  14.8010  15.3356

          k = 0.0625-0.1804-0.0673 (  4490 PWs)   bands (ev):

   -99.4790 -99.4735 -99.0897 -99.0896 -50.8406 -50.7607 -50.7336 -50.7267
   -50.7182 -50.7011 -50.3734 -50.3732 -50.3440 -50.3439 -50.3073 -50.3066
    -2.3840  -1.2108  -0.2776  -0.2164   1.0986   1.2460   1.3187   1.7976
     1.8253   1.9554   2.0282   2.1471   2.1634   2.5601   2.6669   2.8260
     3.0147   3.0792   3.3620   3.5786   3.8216   4.1920   4.4077   6.1265
     8.1435  11.1553  12.0456  12.3047  14.1266  14.5799

          k = 0.0625-0.0361-0.0673 (  4520 PWs)   bands (ev):

   -99.4810 -99.4748 -99.0914 -99.0913 -50.8492 -50.7403 -50.7128 -50.7099
   -50.6969 -50.6919 -50.3392 -50.3391 -50.3344 -50.3343 -50.3110 -50.3097
    -3.0661  -1.8561  -0.8538  -0.8282   1.4770   1.4976   1.5747   1.6994
     1.7602   1.8246   2.0505   2.1125   2.1715   2.2500   2.4279   3.0596
     3.0650   3.4064   3.4798   3.7373   3.9231   4.0893   4.2476   5.2428
     6.6805  10.7420  11.4725  11.8244  13.5757  14.0849

          k = 0.1875 0.3248-0.0673 (  4450 PWs)   bands (ev):

   -99.4742 -99.4705 -99.0858 -99.0857 -50.8344 -50.8234 -50.7917 -50.7475
   -50.7411 -50.7290 -50.4431 -50.4428 -50.3760 -50.3758 -50.2992 -50.2991
    -0.6780  -0.0671   0.4278   0.6427   0.6790   1.0190   1.2555   1.4354
     1.6697   1.7790   1.7977   2.2718   2.3030   2.6908   2.9922   3.3037
     3.5184   3.9612   4.0230   4.2078   4.4732   4.6492   5.7945   7.8389
    11.0300  12.6122  13.9162  13.9764  14.8672  14.9296

          k = 0.1875 0.4691-0.0673 (  4428 PWs)   bands (ev):

   -99.4712 -99.4691 -99.0837 -99.0836 -50.8581 -50.8497 -50.7922 -50.7719
   -50.7555 -50.7402 -50.4735 -50.4733 -50.4001 -50.4000 -50.2950 -50.2949
    -0.1483  -0.0374   0.2752   0.5229   0.8240   0.9897   1.1856   1.5590
     1.7819   2.0241   2.2228   2.5918   2.7696   2.8909   3.2957   3.4054
     3.5555   4.0899   4.3166   4.5057   6.1776   6.8260   8.0533   9.8878
    10.6245  11.5913  12.6699  13.2093  14.0658  14.6402

          k = 0.1875 0.6134-0.0673 (  4432 PWs)   bands (ev):

   -99.4704 -99.4689 -99.0832 -99.0831 -50.8656 -50.8547 -50.7923 -50.7787
   -50.7552 -50.7446 -50.4802 -50.4801 -50.4062 -50.4060 -50.2941 -50.2939
    -0.1334  -0.0959   0.2062   0.6080   0.7426   0.9453   1.0900   1.6395
     1.9500   2.0227   2.1550   2.7969   2.9768   3.1414   3.3784   3.6068
     3.8242   4.1080   4.2047   4.4195   7.3517   8.1623   8.8838   9.3285
    10.0768  10.9992  11.3750  12.6444  14.0214  14.9874

          k = 0.1875-0.3969-0.0673 (  4450 PWs)   bands (ev):

   -99.4726 -99.4697 -99.0846 -99.0845 -50.8455 -50.8394 -50.7934 -50.7601
   -50.7507 -50.7350 -50.4607 -50.4604 -50.3893 -50.3892 -50.2969 -50.2967
    -0.2657   0.0114   0.3453   0.5018   0.8769   1.0288   1.2682   1.4475
     1.6071   2.0700   2.1337   2.2047   2.3918   2.7237   3.1433   3.3214
     3.4748   4.0536   4.2814   4.4157   5.2334   5.6431   6.7908   8.7454
    11.9509  12.6364  13.2315  13.8839  14.2484  14.8743

          k = 0.1875-0.2526-0.0673 (  4452 PWs)   bands (ev):

   -99.4758 -99.4714 -99.0871 -99.0870 -50.8313 -50.8051 -50.7792 -50.7373
   -50.7333 -50.7192 -50.4227 -50.4224 -50.3627 -50.3626 -50.3019 -50.3016
    -1.2568  -0.3414   0.3090   0.5217   0.7789   0.9381   1.1295   1.5352
     1.6839   1.7806   1.9528   2.2166   2.4639   2.7152   2.8722   3.0724
     3.5209   3.6225   3.8233   3.8722   3.8836   4.1330   5.1430   7.1723
    10.0360  12.0251  13.1832  13.3397  15.1380  15.4567

          k = 0.1875-0.1083-0.0673 (  4480 PWs)   bands (ev):

   -99.4784 -99.4731 -99.0892 -99.0891 -50.8382 -50.7707 -50.7417 -50.7288
   -50.7230 -50.7022 -50.3844 -50.3841 -50.3460 -50.3458 -50.3063 -50.3056
    -2.1806  -1.0406  -0.1772  -0.0486   0.9587   1.2233   1.3011   1.7650
     1.8578   1.9500   2.0903   2.2251   2.2694   2.5908   2.6942   2.7808
     3.0328   3.0746   3.4103   3.4126   3.8965   4.2718   4.4669   6.3221
     8.5050  11.2951  12.2341  12.4740  14.3055  14.7418

          k = 0.3125 0.5413-0.0673 (  4434 PWs)   bands (ev):

   -99.4695 -99.4690 -99.0828 -99.0827 -50.8439 -50.8372 -50.8248 -50.7993
   -50.7570 -50.7503 -50.4591 -50.4589 -50.4393 -50.4390 -50.2931 -50.2930
     0.2631   0.3255   0.4848   0.8660   0.9279   1.0885   1.1368   1.7095
     1.7458   2.2042   2.2648   2.4071   2.4419   2.8195   3.1360   3.1515
     3.7805   4.0649   4.0814   4.1920   8.4032   9.3257   9.5439   9.6309
    10.9237  11.1446  11.9642  12.5566  13.0208  13.6072

          k = 0.3125 0.6856-0.0673 (  4444 PWs)   bands (ev):

   -99.4702 -99.4689 -99.0831 -99.0830 -50.8538 -50.8453 -50.8074 -50.7841
   -50.7612 -50.7449 -50.4694 -50.4692 -50.4203 -50.4201 -50.2938 -50.2937
     0.0891   0.1601   0.4843   0.7342   0.9037   1.0853   1.1337   1.5833
     1.7289   2.1111   2.2401   2.4760   2.6086   2.7863   3.1781   3.2726
     3.6401   4.0746   4.2191   4.4008   7.2692   8.1663   9.4045   9.9801
    10.6871  11.4364  11.7296  12.8760  13.2036  15.0400

          k = 0.3125-0.3248-0.0673 (  4428 PWs)   bands (ev):

   -99.4724 -99.4696 -99.0845 -99.0844 -50.8557 -50.8480 -50.7882 -50.7611
   -50.7422 -50.7342 -50.4706 -50.4703 -50.3823 -50.3822 -50.2967 -50.2965
    -0.4833  -0.1904   0.0836   0.3193   0.5947   0.9076   1.3406   1.6652
     1.8203   1.9751   2.2972   2.7344   2.8829   3.0380   3.3700   3.4471
     3.6666   4.0792   4.2517   4.4318   5.1693   5.5723   6.7748   8.8156
    11.2609  12.0441  12.9294  13.6288  14.1279  15.0419

          k = 0.3125-0.1804-0.0673 (  4442 PWs)   bands (ev):

   -99.4746 -99.4707 -99.0862 -99.0861 -50.8374 -50.8311 -50.7871 -50.7412
   -50.7364 -50.7169 -50.4476 -50.4472 -50.3622 -50.3621 -50.3000 -50.2997
    -1.0403  -0.4265   0.0036   0.2439   0.4154   1.0043   1.5456   1.6613
     1.8835   2.0343   2.3907   2.7714   2.7962   2.9932   3.2301   3.3766
     3.5588   3.7273   3.8025   3.8539   3.9467   4.3152   5.3429   7.5391
    10.6004  12.4729  13.6099  13.7010  14.0000  14.8908

          k = 0.4375 0.7578-0.0673 (  4424 PWs)   bands (ev):

   -99.4708 -99.4690 -99.0834 -99.0833 -50.8759 -50.8644 -50.7779 -50.7750
   -50.7445 -50.7431 -50.4901 -50.4900 -50.3904 -50.3903 -50.2946 -50.2944
    -0.4446  -0.3215  -0.0821   0.3416   0.4320   0.8070   1.2426   1.5985
     1.9280   2.2700   2.2984   2.9601   3.3607   3.5782   3.6942   3.9153
     4.0840   4.2196   4.2996   4.4760   7.2433   7.7224   8.1803   8.5034
     9.9454  10.2993  11.2320  12.2278  14.5306  15.4605

          k = 0.4375-0.2526-0.0673 (  4396 PWs)   bands (ev):

   -99.4717 -99.4693 -99.0840 -99.0839 -50.8775 -50.8666 -50.7823 -50.7539
   -50.7451 -50.7275 -50.4916 -50.4913 -50.3737 -50.3736 -50.2958 -50.2955
    -0.7438  -0.5532  -0.2067   0.0408   0.1595   0.7528   1.4465   1.5645
     1.8682   2.4078   2.7293   2.8738   3.6001   3.7581   4.1130   4.1443
     4.2170   4.3827   4.6381   4.6630   5.2058   5.8582   7.0865   8.9545
     9.7701  10.4925  11.5626  13.1078  14.1409  14.6602

     the Fermi energy is     6.1602 ev

!    total energy              =   -1098.85947706 Ry
     Harris-Foulkes estimate   =   -1098.85947706 Ry
     estimated scf accuracy    <          7.1E-09 Ry

     The total energy is the sum of the following terms:

     one-electron contribution =   -6489.92327881 Ry
     hartree contribution      =    3241.04650186 Ry
     xc contribution           =    -101.46324771 Ry
     ewald contribution        =    2251.48161545 Ry
     smearing contrib. (-TS)   =      -0.00106784 Ry

     convergence has been achieved in   8 iterations

     Forces acting on atoms (Ry/au):

     atom    1 type  1   force =     0.00000000   -0.00000000   -0.01369319
     atom    2 type  1   force =     0.00000000   -0.00000000   -0.00204526
     atom    3 type  1   force =     0.00000000   -0.00000000    0.00208284
     atom    4 type  1   force =     0.00000000    0.00000000    0.01365561

     Total force =     0.019558     Total SCF correction =     0.000795

     number of scf cycles    =   3
     number of bfgs steps    =   2

     energy   old            =   -1098.8586638292 Ry
     energy   new            =   -1098.8594770576 Ry

     CASE: energy  _new < energy  _old

     new trust radius        =       0.0410104818 bohr
     new conv_thr            =       0.0000000813 Ry


ATOMIC_POSITIONS (alat)
Au       0.000000000  -0.000000000  -0.015881373
Au       0.500000000   0.288675000   0.817874388
Au       0.000000000   0.577350000   1.631639868
Au       0.000000000   0.000000000   2.465347117



     Writing output data file Au.save
     Check: negative starting charge=   -0.000160
     NEW-OLD atomic charge density approx. for the potential
     Check: negative starting charge=   -0.000160

     negative rho (up, down):  1.039E-05 0.000E+00

     total cpu time spent up to now is      797.6 secs

     per-process dynamical memory:   145.4 Mb

     Self-consistent Calculation

     iteration #  1     ecut=    40.00 Ry     beta=0.70
     Davidson diagonalization with overlap
     ethr =  1.00E-06,  avg # of iterations =  4.5

     negative rho (up, down):  6.944E-07 0.000E+00

     total cpu time spent up to now is      844.9 secs

     total energy              =   -1098.86028442 Ry
     Harris-Foulkes estimate   =   -1098.86050227 Ry
     estimated scf accuracy    <       0.00027139 Ry

     iteration #  2     ecut=    40.00 Ry     beta=0.70
     Davidson diagonalization with overlap
     ethr =  3.57E-07,  avg # of iterations =  3.5

     negative rho (up, down):  6.580E-07 0.000E+00

     total cpu time spent up to now is      876.0 secs

     total energy              =   -1098.85959720 Ry
     Harris-Foulkes estimate   =   -1098.86134084 Ry
     estimated scf accuracy    <       0.01033473 Ry

     iteration #  3     ecut=    40.00 Ry     beta=0.70
     Davidson diagonalization with overlap
     ethr =  3.57E-07,  avg # of iterations =  3.5

     negative rho (up, down):  3.411E-07 0.000E+00

     total cpu time spent up to now is      906.7 secs

     total energy              =   -1098.86044909 Ry
     Harris-Foulkes estimate   =   -1098.86048249 Ry
     estimated scf accuracy    <       0.00009658 Ry

     iteration #  4     ecut=    40.00 Ry     beta=0.70
     Davidson diagonalization with overlap
     ethr =  1.27E-07,  avg # of iterations =  2.0

     negative rho (up, down):  2.267E-07 0.000E+00

     total cpu time spent up to now is      933.0 secs

     total energy              =   -1098.86045424 Ry
     Harris-Foulkes estimate   =   -1098.86047147 Ry
     estimated scf accuracy    <       0.00007519 Ry

     iteration #  5     ecut=    40.00 Ry     beta=0.70
     Davidson diagonalization with overlap
     ethr =  9.89E-08,  avg # of iterations =  1.1

     total cpu time spent up to now is      955.3 secs

     total energy              =   -1098.86045595 Ry
     Harris-Foulkes estimate   =   -1098.86047869 Ry
     estimated scf accuracy    <       0.00023638 Ry

     iteration #  6     ecut=    40.00 Ry     beta=0.70
     Davidson diagonalization with overlap
     ethr =  9.89E-08,  avg # of iterations =  1.0

     total cpu time spent up to now is      977.0 secs

     total energy              =   -1098.86046698 Ry
     Harris-Foulkes estimate   =   -1098.86046732 Ry
     estimated scf accuracy    <       0.00000071 Ry

     iteration #  7     ecut=    40.00 Ry     beta=0.70
     Davidson diagonalization with overlap
     ethr =  9.36E-10,  avg # of iterations =  2.0

     total cpu time spent up to now is     1002.6 secs

     total energy              =   -1098.86046714 Ry
     Harris-Foulkes estimate   =   -1098.86046726 Ry
     estimated scf accuracy    <       0.00000036 Ry

     iteration #  8     ecut=    40.00 Ry     beta=0.70
     Davidson diagonalization with overlap
     ethr =  4.80E-10,  avg # of iterations =  2.0

     total cpu time spent up to now is     1027.4 secs

     End of self-consistent calculation

          k = 0.0625 0.1083-0.0673 (  4518 PWs)   bands (ev):

   -99.4850 -99.4791 -99.0842 -99.0840 -50.8461 -50.7466 -50.7235 -50.7205
   -50.7126 -50.7004 -50.3454 -50.3451 -50.3318 -50.3316 -50.2992 -50.2983
    -2.8066  -1.5938  -0.6177  -0.6165   1.3223   1.4122   1.4997   1.8454
     1.8775   1.8875   1.9734   2.0211   2.2490   2.3498   2.4143   2.9623
     3.0502   3.2795   3.4961   3.6495   3.7798   4.1562   4.1996   5.5904
     7.2351  10.8485  11.6608  11.9559  13.7438  14.2391

          k = 0.0625 0.2526-0.0673 (  4466 PWs)   bands (ev):

   -99.4820 -99.4771 -99.0817 -99.0815 -50.8349 -50.7909 -50.7641 -50.7340
   -50.7314 -50.7137 -50.3962 -50.3959 -50.3463 -50.3460 -50.2938 -50.2933
    -1.7664  -0.6882   0.0497   0.2549   0.8306   1.1193   1.2132   1.7224
     1.7679   1.8841   2.1212   2.2359   2.5292   2.6071   2.7984   2.8706
     3.1201   3.2973   3.4615   3.5464   3.8489   4.1861   4.7149   6.6374
     9.1367  11.5478  12.6068  12.8055  14.6519  15.0406

          k = 0.0625 0.3969-0.0673 (  4438 PWs)   bands (ev):

   -99.4783 -99.4749 -99.0788 -99.0785 -50.8517 -50.8453 -50.7907 -50.7538
   -50.7388 -50.7287 -50.4555 -50.4551 -50.3633 -50.3630 -50.2877 -50.2874
    -0.7783  -0.3294   0.0410   0.2219   0.4482   0.9616   1.4760   1.7869
     1.8006   2.0248   2.4098   2.8231   2.9236   3.1519   3.3646   3.5159
     3.7046   3.9437   3.9843   4.2828   4.3490   4.5077   5.7939   7.9731
    11.0869  12.6159  12.9909  13.6673  14.3474  14.4769

          k = 0.0625 0.5413-0.0673 (  4394 PWs)   bands (ev):

   -99.4760 -99.4738 -99.0771 -99.0769 -50.8850 -50.8733 -50.7806 -50.7658
   -50.7458 -50.7375 -50.4887 -50.4884 -50.3729 -50.3727 -50.2843 -50.2840
    -0.6441  -0.4914  -0.1862   0.1427   0.2327   0.7871   1.4133   1.5168
     1.8939   2.4330   2.5945   2.9956   3.5407   3.7567   4.0309   4.0908
     4.2120   4.3353   4.5345   4.6150   6.1829   6.8598   7.7215   8.3885
     9.7994  10.3341  10.9422  12.4546  14.4128  14.9669

          k = 0.0625-0.4691-0.0673 (  4416 PWs)   bands (ev):

   -99.4768 -99.4742 -99.0777 -99.0775 -50.8731 -50.8629 -50.7857 -50.7613
   -50.7429 -50.7343 -50.4771 -50.4768 -50.3695 -50.3693 -50.2855 -50.2852
    -0.6569  -0.4200  -0.0918   0.1578   0.3146   0.8480   1.4238   1.6274
     1.9309   2.2297   2.5616   2.8918   3.4651   3.5296   3.7994   3.8777
     4.0517   4.1153   4.2861   4.4810   5.0625   5.5079   6.7810   8.9296
    10.3069  11.2465  12.2998  13.5635  13.8099  14.8022

          k = 0.0625-0.3248-0.0673 (  4460 PWs)   bands (ev):

   -99.4801 -99.4759 -99.0802 -99.0799 -50.8345 -50.8211 -50.7855 -50.7443
   -50.7348 -50.7215 -50.4271 -50.4268 -50.3551 -50.3549 -50.2906 -50.2903
    -1.1669  -0.3683   0.1086   0.4111   0.5817   1.0984   1.3163   1.5831
     1.9042   2.0393   2.2001   2.4318   2.5130   2.8177   2.9500   3.1469
     3.5190   3.5752   3.7946   3.8425   3.8928   4.2202   5.1441   7.2334
    10.1945  12.1421  13.3266  13.5219  14.7975  15.3262

          k = 0.0625-0.1804-0.0673 (  4490 PWs)   bands (ev):

   -99.4837 -99.4782 -99.0831 -99.0829 -50.8407 -50.7639 -50.7385 -50.7285
   -50.7234 -50.7063 -50.3675 -50.3672 -50.3381 -50.3378 -50.2968 -50.2961
    -2.3598  -1.1754  -0.2664  -0.2061   1.1055   1.2529   1.3362   1.8033
     1.8369   1.9534   2.0391   2.1472   2.1663   2.5777   2.6862   2.8299
     3.0160   3.0844   3.3528   3.5787   3.8192   4.1743   4.3905   6.0942
     8.1171  11.1225  12.0414  12.2862  14.1143  14.5666

          k = 0.0625-0.0361-0.0673 (  4520 PWs)   bands (ev):

   -99.4857 -99.4796 -99.0848 -99.0846 -50.8491 -50.7403 -50.7177 -50.7151
   -50.7022 -50.6972 -50.3333 -50.3330 -50.3285 -50.3283 -50.3005 -50.2994
    -3.0423  -1.8232  -0.8460  -0.8190   1.4735   1.4933   1.5782   1.7024
     1.7680   1.8224   2.0693   2.1248   2.1903   2.2641   2.4281   3.0562
     3.0616   3.4243   3.4966   3.7367   3.9231   4.0739   4.2312   5.2241
     6.6601  10.7132  11.4704  11.7975  13.5573  14.0739

          k = 0.1875 0.3248-0.0673 (  4450 PWs)   bands (ev):

   -99.4789 -99.4752 -99.0792 -99.0790 -50.8373 -50.8279 -50.7942 -50.7525
   -50.7440 -50.7318 -50.4373 -50.4370 -50.3701 -50.3698 -50.2886 -50.2883
    -0.6546  -0.0282   0.4467   0.6509   0.7019   1.0482   1.2740   1.4501
     1.6762   1.7908   1.8150   2.2623   2.3081   2.6997   2.9910   3.3034
     3.5107   3.9418   4.0237   4.1925   4.4680   4.6540   5.7617   7.7900
    11.0007  12.5825  13.9039  13.9727  14.8638  14.9325

          k = 0.1875 0.4691-0.0673 (  4428 PWs)   bands (ev):

   -99.4760 -99.4738 -99.0771 -99.0769 -50.8628 -50.8541 -50.7952 -50.7753
   -50.7594 -50.7414 -50.4678 -50.4676 -50.3943 -50.3940 -50.2843 -50.2840
    -0.1283  -0.0133   0.2870   0.5610   0.8513   1.0224   1.2077   1.5718
     1.7912   2.0273   2.2342   2.6079   2.7790   2.8941   3.2825   3.3960
     3.5361   4.0732   4.3027   4.4899   6.1773   6.8303   8.0290   9.8471
    10.6248  11.5893  12.6609  13.1965  14.0289  14.6137

          k = 0.1875 0.6134-0.0673 (  4432 PWs)   bands (ev):

   -99.4752 -99.4736 -99.0766 -99.0764 -50.8704 -50.8591 -50.7967 -50.7812
   -50.7587 -50.7457 -50.4746 -50.4744 -50.4003 -50.4001 -50.2832 -50.2830
    -0.1124  -0.0738   0.2175   0.6425   0.7751   0.9816   1.1071   1.6487
     1.9575   2.0366   2.1642   2.8069   2.9836   3.1461   3.3711   3.5931
     3.8077   4.0912   4.1891   4.4024   7.3534   8.1673   8.8855   9.3173
    10.0658  10.9755  11.3491  12.6183  13.9916  14.9784

          k = 0.1875-0.3969-0.0673 (  4450 PWs)   bands (ev):

   -99.4773 -99.4744 -99.0780 -99.0778 -50.8497 -50.8438 -50.7954 -50.7643
   -50.7549 -50.7366 -50.4550 -50.4547 -50.3835 -50.3832 -50.2861 -50.2859
    -0.2453   0.0420   0.3650   0.5280   0.8994   1.0603   1.2889   1.4573
     1.6242   2.0729   2.1456   2.2144   2.3962   2.7250   3.1392   3.3129
     3.4605   4.0351   4.2736   4.4015   5.2302   5.6477   6.7624   8.6983
    11.9285  12.6285  13.2237  13.8689  14.2454  14.8661

          k = 0.1875-0.2526-0.0673 (  4452 PWs)   bands (ev):

   -99.4805 -99.4761 -99.0805 -99.0803 -50.8326 -50.8095 -50.7831 -50.7421
   -50.7347 -50.7240 -50.4168 -50.4165 -50.3568 -50.3566 -50.2913 -50.2909
    -1.2326  -0.3014   0.3205   0.5337   0.8068   0.9499   1.1469   1.5474
     1.6916   1.7850   1.9744   2.2118   2.4695   2.7229   2.8755   3.0795
     3.5232   3.6196   3.8202   3.8639   3.8784   4.1146   5.1108   7.1258
    10.0065  11.9927  13.1747  13.3304  15.1346  15.4379

          k = 0.1875-0.1083-0.0673 (  4480 PWs)   bands (ev):

   -99.4831 -99.4778 -99.0826 -99.0824 -50.8385 -50.7745 -50.7465 -50.7301
   -50.7282 -50.7074 -50.3785 -50.3782 -50.3400 -50.3398 -50.2957 -50.2951
    -2.1565  -1.0048  -0.1648  -0.0382   0.9697   1.2309   1.3235   1.7609
     1.8713   1.9500   2.1070   2.2202   2.2732   2.6123   2.7008   2.7993
     3.0337   3.0748   3.3937   3.4192   3.8898   4.2521   4.4496   6.2864
     8.4777  11.2618  12.2292  12.4576  14.2947  14.7275

          k = 0.3125 0.5413-0.0673 (  4434 PWs)   bands (ev):

   -99.4744 -99.4736 -99.0762 -99.0759 -50.8486 -50.8416 -50.8293 -50.8042
   -50.7582 -50.7513 -50.4534 -50.4531 -50.4335 -50.4332 -50.2823 -50.2820
     0.2822   0.3529   0.5003   0.9043   0.9637   1.1140   1.1766   1.7258
     1.7622   2.2125   2.2698   2.4161   2.4485   2.8141   3.1125   3.1272
     3.7667   4.0513   4.0631   4.1748   8.4043   9.3200   9.5442   9.6258
    10.9230  11.1332  11.9583  12.5333  12.9984  13.5880

          k = 0.3125 0.6856-0.0673 (  4444 PWs)   bands (ev):

   -99.4750 -99.4736 -99.0765 -99.0763 -50.8585 -50.8498 -50.8116 -50.7885
   -50.7630 -50.7460 -50.4637 -50.4634 -50.4145 -50.4142 -50.2830 -50.2827
     0.1078   0.1868   0.4992   0.7671   0.9392   1.1172   1.1677   1.5980
     1.7379   2.1234   2.2406   2.4876   2.6161   2.7840   3.1592   3.2568
     3.6244   4.0599   4.2016   4.3835   7.2708   8.1683   9.3813   9.9756
    10.6821  11.4175  11.7217  12.8582  13.1925  15.0018

          k = 0.3125-0.3248-0.0673 (  4428 PWs)   bands (ev):

   -99.4771 -99.4743 -99.0779 -99.0777 -50.8603 -50.8522 -50.7897 -50.7655
   -50.7453 -50.7372 -50.4649 -50.4646 -50.3764 -50.3761 -50.2859 -50.2856
    -0.4632  -0.1689   0.0982   0.3539   0.6158   0.9388   1.3561   1.6732
     1.8248   1.9874   2.3147   2.7544   2.8950   3.0421   3.3612   3.4369
     3.6523   4.0602   4.2447   4.4188   5.1661   5.5771   6.7465   8.7685
    11.2569  12.0331  12.9193  13.6032  14.1046  15.0294

          k = 0.3125-0.1804-0.0673 (  4442 PWs)   bands (ev):

   -99.4793 -99.4754 -99.0796 -99.0793 -50.8406 -50.8352 -50.7896 -50.7464
   -50.7368 -50.7222 -50.4418 -50.4414 -50.3563 -50.3561 -50.2894 -50.2890
    -1.0189  -0.4005   0.0245   0.2635   0.4338   1.0346   1.5394   1.6778
     1.8884   2.0561   2.3959   2.8071   2.8080   2.9991   3.2397   3.3609
     3.5616   3.7078   3.7993   3.8577   3.9383   4.2925   5.3073   7.4891
    10.5735  12.4410  13.6078  13.6898  13.9916  14.8885

          k = 0.4375 0.7578-0.0673 (  4424 PWs)   bands (ev):

   -99.4756 -99.4737 -99.0768 -99.0766 -50.8807 -50.8688 -50.7795 -50.7790
   -50.7479 -50.7455 -50.4845 -50.4843 -50.3845 -50.3843 -50.2837 -50.2835
    -0.4245  -0.3039  -0.0668   0.3681   0.4587   0.8468   1.2581   1.5903
     1.9411   2.2834   2.3239   2.9719   3.3582   3.5757   3.6980   3.9052
     4.0718   4.2035   4.2900   4.4613   7.2459   7.7255   8.1846   8.5032
     9.9207  10.2822  11.2150  12.1653  14.5014  15.4082

          k = 0.4375-0.2526-0.0673 (  4396 PWs)   bands (ev):

   -99.4764 -99.4740 -99.0774 -99.0772 -50.8823 -50.8709 -50.7830 -50.7591
   -50.7454 -50.7327 -50.4860 -50.4856 -50.3678 -50.3675 -50.2850 -50.2847
    -0.7252  -0.5393  -0.1877   0.0674   0.1810   0.7916   1.4424   1.5634
     1.8911   2.4187   2.7690   2.8785   3.5966   3.7506   4.0989   4.1339
     4.2134   4.3729   4.6436   4.6645   5.2062   5.8598   7.0655   8.9327
     9.7510  10.4850  11.5535  13.0570  14.0987  14.6230

     the Fermi energy is     6.1490 ev

!    total energy              =   -1098.86046719 Ry
     Harris-Foulkes estimate   =   -1098.86046721 Ry
     estimated scf accuracy    <       0.00000003 Ry

     The total energy is the sum of the following terms:

     one-electron contribution =   -6441.94559409 Ry
     hartree contribution      =    3217.06144147 Ry
     xc contribution           =    -101.45009572 Ry
     ewald contribution        =    2227.47481617 Ry
     smearing contrib. (-TS)   =      -0.00103503 Ry

     convergence has been achieved in   8 iterations

     Forces acting on atoms (Ry/au):

     atom    1 type  1   force =     0.00000000    0.00000000   -0.01055084
     atom    2 type  1   force =     0.00000000    0.00000000   -0.00552777
     atom    3 type  1   force =     0.00000000   -0.00000000    0.00558767
     atom    4 type  1   force =     0.00000000    0.00000000    0.01049095

     Total force =     0.016827     Total SCF correction =     0.001652

     number of scf cycles    =   4
     number of bfgs steps    =   3

     energy   old            =   -1098.8594770576 Ry
     energy   new            =   -1098.8604671946 Ry

     CASE: energy  _new < energy  _old

     new trust radius        =       0.0615157226 bohr
     new conv_thr            =       0.0000000990 Ry


ATOMIC_POSITIONS (alat)
Au       0.000000000  -0.000000000  -0.027170733
Au       0.500000000   0.288675000   0.816862175
Au       0.000000000   0.577350000   1.632678831
Au       0.000000000   0.000000000   2.476609728



     Writing output data file Au.save
     Check: negative starting charge=   -0.000160
     NEW-OLD atomic charge density approx. for the potential
     Check: negative starting charge=   -0.000163

     negative rho (up, down):  2.001E-05 0.000E+00

     total cpu time spent up to now is     1033.4 secs

     per-process dynamical memory:   145.4 Mb

     Self-consistent Calculation

     iteration #  1     ecut=    40.00 Ry     beta=0.70
     Davidson diagonalization with overlap
     ethr =  1.00E-06,  avg # of iterations =  5.0

     negative rho (up, down):  2.061E-06 0.000E+00

     total cpu time spent up to now is     1086.3 secs

     total energy              =   -1098.86122436 Ry
     Harris-Foulkes estimate   =   -1098.86166018 Ry
     estimated scf accuracy    <       0.00056700 Ry

     iteration #  2     ecut=    40.00 Ry     beta=0.70
     Davidson diagonalization with overlap
     ethr =  7.46E-07,  avg # of iterations =  3.8

     negative rho (up, down):  2.295E-06 0.000E+00

     total cpu time spent up to now is     1117.0 secs

     total energy              =   -1098.85977179 Ry
     Harris-Foulkes estimate   =   -1098.86342696 Ry
     estimated scf accuracy    <       0.02173410 Ry

     iteration #  3     ecut=    40.00 Ry     beta=0.70
     Davidson diagonalization with overlap
     ethr =  7.46E-07,  avg # of iterations =  3.9

     negative rho (up, down):  1.397E-06 0.000E+00

     total cpu time spent up to now is     1148.0 secs

     total energy              =   -1098.86156264 Ry
     Harris-Foulkes estimate   =   -1098.86162989 Ry
     estimated scf accuracy    <       0.00019183 Ry

     iteration #  4     ecut=    40.00 Ry     beta=0.70
     Davidson diagonalization with overlap
     ethr =  2.52E-07,  avg # of iterations =  2.1

     negative rho (up, down):  1.220E-06 0.000E+00

     total cpu time spent up to now is     1177.0 secs

     total energy              =   -1098.86155501 Ry
     Harris-Foulkes estimate   =   -1098.86162552 Ry
     estimated scf accuracy    <       0.00048975 Ry

     iteration #  5     ecut=    40.00 Ry     beta=0.70
     Davidson diagonalization with overlap
     ethr =  2.52E-07,  avg # of iterations =  1.6

     total cpu time spent up to now is     1199.5 secs

     total energy              =   -1098.86158842 Ry
     Harris-Foulkes estimate   =   -1098.86161455 Ry
     estimated scf accuracy    <       0.00024049 Ry

     iteration #  6     ecut=    40.00 Ry     beta=0.70
     Davidson diagonalization with overlap
     ethr =  2.52E-07,  avg # of iterations =  1.0

     total cpu time spent up to now is     1220.6 secs

     total energy              =   -1098.86160066 Ry
     Harris-Foulkes estimate   =   -1098.86160170 Ry
     estimated scf accuracy    <       0.00000226 Ry

     iteration #  7     ecut=    40.00 Ry     beta=0.70
     Davidson diagonalization with overlap
     ethr =  2.97E-09,  avg # of iterations =  2.0

     total cpu time spent up to now is     1247.0 secs

     total energy              =   -1098.86160114 Ry
     Harris-Foulkes estimate   =   -1098.86160152 Ry
     estimated scf accuracy    <       0.00000111 Ry

     iteration #  8     ecut=    40.00 Ry     beta=0.70
     Davidson diagonalization with overlap
     ethr =  1.45E-09,  avg # of iterations =  2.0

     total cpu time spent up to now is     1270.5 secs

     End of self-consistent calculation

          k = 0.0625 0.1083-0.0673 (  4518 PWs)   bands (ev):

   -99.4893 -99.4835 -99.0752 -99.0747 -50.8424 -50.7471 -50.7259 -50.7254
   -50.7179 -50.7058 -50.3375 -50.3370 -50.3239 -50.3235 -50.2848 -50.2839
    -2.7658  -1.5493  -0.6054  -0.6000   1.3330   1.4125   1.5091   1.8497
     1.8788   1.9056   1.9982   2.0295   2.2529   2.3695   2.4332   2.9656
     3.0481   3.2988   3.5048   3.6505   3.7814   4.1385   4.1761   5.5553
     7.2021  10.7973  11.6557  11.9202  13.7202  14.2193

          k = 0.0625 0.2526-0.0673 (  4466 PWs)   bands (ev):

   -99.4863 -99.4815 -99.0727 -99.0722 -50.8320 -50.7944 -50.7686 -50.7385
   -50.7311 -50.7190 -50.3884 -50.3879 -50.3384 -50.3379 -50.2793 -50.2787
    -1.7249  -0.6378   0.0722   0.2717   0.8557   1.1373   1.2434   1.7178
     1.7817   1.8954   2.1488   2.2378   2.5432   2.6143   2.8138   2.8828
     3.1343   3.3012   3.4432   3.5455   3.8394   4.1586   4.6784   6.5757
     9.0955  11.4953  12.5965  12.7861  14.6394  15.0153

          k = 0.0625 0.3969-0.0673 (  4438 PWs)   bands (ev):

   -99.4826 -99.4793 -99.0697 -99.0693 -50.8555 -50.8480 -50.7902 -50.7584
   -50.7382 -50.7334 -50.4478 -50.4473 -50.3554 -50.3550 -50.2731 -50.2726
    -0.7430  -0.2957   0.0735   0.2598   0.4718   1.0036   1.4776   1.7956
     1.8262   2.0554   2.4274   2.8630   2.9376   3.1581   3.3613   3.5084
     3.6910   3.9265   3.9811   4.2544   4.3459   4.5119   5.7455   7.8966
    11.0553  12.6058  12.9486  13.6603  14.3373  14.4644

          k = 0.0625 0.5413-0.0673 (  4394 PWs)   bands (ev):

   -99.4803 -99.4782 -99.0681 -99.0676 -50.8892 -50.8771 -50.7790 -50.7701
   -50.7447 -50.7427 -50.4811 -50.4807 -50.3650 -50.3646 -50.2696 -50.2691
    -0.6112  -0.4665  -0.1534   0.1748   0.2625   0.8393   1.4276   1.5062
     1.9257   2.4548   2.6339   3.0136   3.5375   3.7433   4.0212   4.0808
     4.1956   4.3232   4.5359   4.6096   6.1869   6.8650   7.7130   8.3828
     9.7738  10.3023  10.9157  12.3774  14.3459  14.8915

          k = 0.0625-0.4691-0.0673 (  4416 PWs)   bands (ev):

   -99.4811 -99.4785 -99.0687 -99.0682 -50.8772 -50.8664 -50.7844 -50.7657
   -50.7424 -50.7389 -50.4695 -50.4690 -50.3616 -50.3612 -50.2708 -50.2703
    -0.6239  -0.3930  -0.0597   0.1958   0.3411   0.8965   1.4304   1.6264
     1.9621   2.2556   2.5910   2.9196   3.4728   3.5281   3.7950   3.8648
     4.0358   4.0987   4.2827   4.4679   5.0604   5.5129   6.7447   8.8603
    10.3085  11.2390  12.2868  13.5035  13.7562  14.7677

          k = 0.0625-0.3248-0.0673 (  4460 PWs)   bands (ev):

   -99.4844 -99.4803 -99.0712 -99.0707 -50.8342 -50.8247 -50.7879 -50.7489
   -50.7341 -50.7267 -50.4194 -50.4189 -50.3472 -50.3468 -50.2760 -50.2755
    -1.1271  -0.3218   0.1370   0.4348   0.6084   1.1326   1.3418   1.5823
     1.9128   2.0671   2.2223   2.4433   2.5228   2.8451   2.9363   3.1611
     3.5218   3.5625   3.7959   3.8398   3.8784   4.1901   5.0971   7.1607
    10.1529  12.0923  13.3138  13.5076  14.7942  15.3131

          k = 0.0625-0.1804-0.0673 (  4490 PWs)   bands (ev):

   -99.4880 -99.4826 -99.0741 -99.0736 -50.8372 -50.7666 -50.7435 -50.7288
   -50.7284 -50.7117 -50.3596 -50.3591 -50.3302 -50.3297 -50.2824 -50.2817
    -2.3186  -1.1283  -0.2476  -0.1912   1.1206   1.2629   1.3614   1.8044
     1.8572   1.9530   2.0553   2.1516   2.1743   2.6004   2.7103   2.8371
     3.0184   3.0926   3.3420   3.5809   3.8187   4.1495   4.3650   6.0463
     8.0792  11.0694  12.0342  12.2587  14.0959  14.5449

          k = 0.0625-0.0361-0.0673 (  4520 PWs)   bands (ev):

   -99.4900 -99.4840 -99.0758 -99.0753 -50.8453 -50.7389 -50.7219 -50.7201
   -50.7075 -50.7026 -50.3254 -50.3249 -50.3206 -50.3202 -50.2861 -50.2851
    -3.0018  -1.7798  -0.8349  -0.8038   1.4644   1.4954   1.5858   1.7106
     1.7828   1.8222   2.0934   2.1410   2.2145   2.2815   2.4298   3.0550
     3.0603   3.4482   3.5190   3.7388   3.9258   4.0519   4.2084   5.1969
     6.6312  10.6641  11.4664  11.7567  13.5304  14.0549

          k = 0.1875 0.3248-0.0673 (  4450 PWs)   bands (ev):

   -99.4832 -99.4796 -99.0702 -99.0697 -50.8387 -50.8318 -50.7949 -50.7571
   -50.7475 -50.7326 -50.4296 -50.4291 -50.3622 -50.3618 -50.2740 -50.2735
    -0.6135   0.0287   0.4775   0.6689   0.7353   1.0859   1.2980   1.4694
     1.6875   1.8055   1.8422   2.2495   2.3142   2.7133   2.9907   3.3068
     3.5038   3.9156   4.0229   4.1707   4.4616   4.6603   5.7165   7.7159
    10.9579  12.5379  13.8847  13.9673  14.8614  14.9380

          k = 0.1875 0.4691-0.0673 (  4428 PWs)   bands (ev):

   -99.4803 -99.4782 -99.0681 -99.0676 -50.8668 -50.8578 -50.7972 -50.7776
   -50.7627 -50.7409 -50.4602 -50.4598 -50.3864 -50.3860 -50.2695 -50.2690
    -0.0929   0.0274   0.3089   0.6127   0.8870   1.0638   1.2446   1.5910
     1.8082   2.0314   2.2515   2.6282   2.7910   2.8987   3.2676   3.3838
     3.5122   4.0486   4.2827   4.4675   6.1788   6.8354   7.9966   9.7852
    10.6280  11.5862  12.6476  13.1775  13.9785  14.5748

          k = 0.1875 0.6134-0.0673 (  4432 PWs)   bands (ev):

   -99.4795 -99.4780 -99.0676 -99.0671 -50.8745 -50.8629 -50.8004 -50.7830
   -50.7610 -50.7448 -50.4670 -50.4666 -50.3925 -50.3920 -50.2685 -50.2680
    -0.0761  -0.0357   0.2390   0.6873   0.8184   1.0291   1.1379   1.6598
     1.9726   2.0573   2.1791   2.8201   2.9926   3.1519   3.3644   3.5744
     3.7871   4.0668   4.1668   4.3776   7.3583   8.1737   8.8903   9.3022
    10.0506  10.9425  11.3080  12.5788  13.9545  14.9644

          k = 0.1875-0.3969-0.0673 (  4450 PWs)   bands (ev):

   -99.4816 -99.4787 -99.0690 -99.0685 -50.8531 -50.8476 -50.7955 -50.7679
   -50.7591 -50.7364 -50.4473 -50.4468 -50.3756 -50.3751 -50.2714 -50.2710
    -0.2083   0.0900   0.3955   0.5676   0.9306   1.1017   1.3184   1.4741
     1.6512   2.0739   2.1610   2.2288   2.4026   2.7267   3.1343   3.3049
     3.4447   4.0087   4.2612   4.3819   5.2272   5.6533   6.7244   8.6270
    11.8959  12.6187  13.2122  13.8468  14.2421  14.8530

          k = 0.1875-0.2526-0.0673 (  4452 PWs)   bands (ev):

   -99.4848 -99.4805 -99.0715 -99.0710 -50.8312 -50.8132 -50.7863 -50.7468
   -50.7352 -50.7280 -50.4090 -50.4086 -50.3489 -50.3485 -50.2767 -50.2762
    -1.1909  -0.2457   0.3420   0.5552   0.8435   0.9684   1.1711   1.5629
     1.7017   1.7923   2.0062   2.2069   2.4771   2.7351   2.8823   3.0921
     3.5248   3.6182   3.8105   3.8590   3.8733   4.0882   5.0651   7.0557
     9.9636  11.9429  13.1613  13.3166  15.1293  15.4099

          k = 0.1875-0.1083-0.0673 (  4480 PWs)   bands (ev):

   -99.4874 -99.4822 -99.0736 -99.0731 -50.8351 -50.7777 -50.7513 -50.7332
   -50.7298 -50.7128 -50.3706 -50.3702 -50.3321 -50.3317 -50.2813 -50.2806
    -2.1152  -0.9569  -0.1443  -0.0229   0.9891   1.2437   1.3551   1.7539
     1.8882   1.9536   2.1363   2.2134   2.2827   2.6391   2.7111   2.8222
     3.0360   3.0759   3.3748   3.4288   3.8838   4.2245   4.4231   6.2333
     8.4384  11.2084  12.2209  12.4332  14.2785  14.7046

          k = 0.3125 0.5413-0.0673 (  4434 PWs)   bands (ev):

   -99.4786 -99.4780 -99.0671 -99.0667 -50.8526 -50.8453 -50.8330 -50.8092
   -50.7575 -50.7505 -50.4456 -50.4452 -50.4257 -50.4253 -50.2675 -50.2670
     0.3172   0.3976   0.5318   0.9564   1.0132   1.1538   1.2293   1.7493
     1.7858   2.2240   2.2766   2.4278   2.4574   2.8023   3.0825   3.0967
     3.7502   4.0309   4.0373   4.1499   8.4079   9.3115   9.5461   9.6200
    10.9229  11.1185  11.9503  12.5004  12.9633  13.5598

          k = 0.3125 0.6856-0.0673 (  4444 PWs)   bands (ev):

   -99.4793 -99.4780 -99.0675 -99.0670 -50.8625 -50.8536 -50.8149 -50.7929
   -50.7631 -50.7452 -50.4560 -50.4556 -50.4066 -50.4062 -50.2682 -50.2677
     0.1425   0.2306   0.5262   0.8143   0.9882   1.1617   1.2147   1.6191
     1.7531   2.1393   2.2419   2.5021   2.6259   2.7797   3.1365   3.2365
     3.6050   4.0379   4.1772   4.3584   7.2754   8.1702   9.3501   9.9706
    10.6744  11.3908  11.7107  12.8316  13.1764  14.9486

          k = 0.3125-0.3248-0.0673 (  4428 PWs)   bands (ev):

   -99.4814 -99.4787 -99.0689 -99.0684 -50.8643 -50.8556 -50.7891 -50.7694
   -50.7490 -50.7376 -50.4572 -50.4568 -50.3685 -50.3681 -50.2712 -50.2707
    -0.4280  -0.1337   0.1250   0.4001   0.6429   0.9797   1.3805   1.6861
     1.8366   2.0077   2.3392   2.7799   2.9108   3.0483   3.3492   3.4262
     3.6358   4.0336   4.2337   4.4004   5.1630   5.5830   6.7085   8.6969
    11.2531  12.0176  12.9032  13.5637  14.0733  15.0110

          k = 0.3125-0.1804-0.0673 (  4442 PWs)   bands (ev):

   -99.4836 -99.4798 -99.0705 -99.0701 -50.8429 -50.8378 -50.7905 -50.7513
   -50.7355 -50.7276 -50.4340 -50.4335 -50.3484 -50.3480 -50.2748 -50.2742
    -0.9818  -0.3625   0.0578   0.2926   0.4581   1.0750   1.5308   1.7057
     1.8986   2.0938   2.4051   2.8226   2.8533   3.0073   3.2552   3.3393
     3.5643   3.6830   3.7967   3.8628   3.9295   4.2604   5.2570   7.4132
    10.5348  12.3925  13.6030  13.6756  13.9799  14.8850

          k = 0.4375 0.7578-0.0673 (  4424 PWs)   bands (ev):

   -99.4799 -99.4781 -99.0678 -99.0673 -50.8849 -50.8727 -50.7835 -50.7780
   -50.7527 -50.7445 -50.4770 -50.4765 -50.3767 -50.3762 -50.2689 -50.2685
    -0.3899  -0.2738  -0.0387   0.4016   0.4928   0.8994   1.2863   1.5790
     1.9624   2.3075   2.3582   2.9892   3.3570   3.5703   3.7038   3.8907
     4.0574   4.1808   4.2761   4.4403   7.2523   7.7312   8.1918   8.5031
     9.8861  10.2595  11.1853  12.0760  14.4614  15.3289

          k = 0.4375-0.2526-0.0673 (  4396 PWs)   bands (ev):

   -99.4807 -99.4784 -99.0684 -99.0679 -50.8864 -50.8747 -50.7814 -50.7640
   -50.7437 -50.7381 -50.4784 -50.4779 -50.3599 -50.3594 -50.2702 -50.2697
    -0.6929  -0.5149  -0.1542   0.1012   0.2086   0.8427   1.4357   1.5671
     1.9302   2.4387   2.8197   2.8882   3.5953   3.7376   4.0791   4.1190
     4.2105   4.3595   4.6510   4.6674   5.2084   5.8619   7.0382   8.8988
     9.7244  10.4751  11.5382  12.9890  14.0336  14.5650

     the Fermi energy is     6.1335 ev

!    total energy              =   -1098.86160130 Ry
     Harris-Foulkes estimate   =   -1098.86160133 Ry
     estimated scf accuracy    <       0.00000003 Ry

     The total energy is the sum of the following terms:

     one-electron contribution =   -6368.20961051 Ry
     hartree contribution      =    3180.20106550 Ry
[...]
   -50.7217 -50.6918 -50.4343 -50.4329 -50.3453 -50.3439 -50.2280 -50.2263
    -0.1969   0.0586   0.3210   0.5304   0.7150   1.1018   1.4714   1.7724
     1.9526   2.1299   2.4368   2.8408   2.9545   3.0760   3.3172   3.4307
     3.6168   3.9495   4.1998   4.3495   5.1857   5.5975   6.6089   8.4053
    11.2702  11.9750  12.8326  13.3938  13.9934  14.9434

          k = 0.3125-0.1804-0.0673 (  4442 PWs)   bands (ev):

   -99.4534 -99.4508 -99.0432 -99.0418 -50.8077 -50.7994 -50.7383 -50.7204
   -50.7044 -50.6897 -50.4110 -50.4096 -50.3251 -50.3237 -50.2317 -50.2300
    -0.7446  -0.1982   0.2173   0.4140   0.5580   1.1981   1.5171   1.8616
     1.9576   2.3336   2.4643   2.8520   2.9880   3.0347   3.2817   3.3371
     3.5858   3.6268   3.8070   3.8784   3.9245   4.1559   5.0998   7.0994
    10.3947  12.1919  13.5482  13.6664  13.9462  14.8692

          k = 0.4375 0.7578-0.0673 (  4424 PWs)   bands (ev):

   -99.4501 -99.4486 -99.0404 -99.0390 -50.8513 -50.8413 -50.7503 -50.7350
   -50.7166 -50.6959 -50.4541 -50.4528 -50.3534 -50.3521 -50.2256 -50.2239
    -0.1772  -0.0851   0.1623   0.4861   0.5805   1.0420   1.4446   1.5640
     2.0994   2.4432   2.4655   3.0591   3.3817   3.5385   3.7318   3.8413
     4.0438   4.1218   4.2316   4.3757   7.3215   7.7800   8.2313   8.5082
     9.7747  10.2024  11.0317  11.7728  14.3344  14.9970

          k = 0.4375-0.2526-0.0673 (  4396 PWs)   bands (ev):

   -99.4508 -99.4491 -99.0410 -99.0396 -50.8528 -50.8429 -50.7327 -50.7245
   -50.7152 -50.6943 -50.4556 -50.4542 -50.3366 -50.3352 -50.2269 -50.2252
    -0.4902  -0.3543   0.0610   0.1864   0.2871   0.9789   1.4268   1.6163
     2.1725   2.5554   2.9419   2.9633   3.6216   3.6792   4.0174   4.0715
     4.2499   4.3464   4.6728   4.6805   5.2485   5.8688   6.9772   8.7507
     9.6610  10.4518  11.4672  12.8017  13.7580  14.3123

     the Fermi energy is     6.0885 ev

!    total energy              =   -1098.86383450 Ry
     Harris-Foulkes estimate   =   -1098.86383450 Ry
     estimated scf accuracy    <          1.8E-09 Ry

     The total energy is the sum of the following terms:

     one-electron contribution =   -6049.58329688 Ry
     hartree contribution      =    3020.97216934 Ry
     xc contribution           =    -101.35954316 Ry
     ewald contribution        =    2031.10725944 Ry
     smearing contrib. (-TS)   =      -0.00042324 Ry

     convergence has been achieved in   9 iterations

     Forces acting on atoms (Ry/au):

     atom    1 type  1   force =     0.00000000    0.00000000    0.00198452
     atom    2 type  1   force =     0.00000000   -0.00000000   -0.00416507
     atom    3 type  1   force =     0.00000000   -0.00000000    0.00404194
     atom    4 type  1   force =     0.00000000   -0.00000000   -0.00186138

     Total force =     0.006410     Total SCF correction =     0.000268

     number of scf cycles    =   9
     number of bfgs steps    =   8

     energy   old            =   -1098.8636040749 Ry
     energy   new            =   -1098.8638344984 Ry

     CASE: energy  _new < energy  _old

     new trust radius        =       0.0163797702 bohr
     new conv_thr            =       0.0000000230 Ry


ATOMIC_POSITIONS (alat)
Au       0.000000000  -0.000000000  -0.071640824
Au       0.500000000   0.288675000   0.797508797
Au       0.000000000   0.577350000   1.652174586
Au       0.000000000  -0.000000000   2.520937441



     Writing output data file Au.save
     Check: negative starting charge=   -0.000158
     NEW-OLD atomic charge density approx. for the potential
     Check: negative starting charge=   -0.000159

     negative rho (up, down):  1.066E-06 0.000E+00

     total cpu time spent up to now is     2276.5 secs

     per-process dynamical memory:   145.4 Mb

     Self-consistent Calculation

     iteration #  1     ecut=    40.00 Ry     beta=0.70
     Davidson diagonalization with overlap
     ethr =  1.00E-06,  avg # of iterations =  4.0

     Threshold (ethr) on eigenvalues was too large:
     Diagonalizing with lowered threshold

     Davidson diagonalization with overlap
     ethr =  4.13E-08,  avg # of iterations =  1.0

     total cpu time spent up to now is     2342.7 secs

     total energy              =   -1098.86391494 Ry
     Harris-Foulkes estimate   =   -1098.86393842 Ry
     estimated scf accuracy    <       0.00003177 Ry

     iteration #  2     ecut=    40.00 Ry     beta=0.70
     Davidson diagonalization with overlap
     ethr =  4.18E-08,  avg # of iterations =  2.0

     total cpu time spent up to now is     2368.9 secs

     total energy              =   -1098.86388160 Ry
     Harris-Foulkes estimate   =   -1098.86396932 Ry
     estimated scf accuracy    <       0.00035362 Ry

     iteration #  3     ecut=    40.00 Ry     beta=0.70
     Davidson diagonalization with overlap
     ethr =  4.18E-08,  avg # of iterations =  2.2

     total cpu time spent up to now is     2396.8 secs

     total energy              =   -1098.86391942 Ry
     Harris-Foulkes estimate   =   -1098.86394183 Ry
     estimated scf accuracy    <       0.00010831 Ry

     iteration #  4     ecut=    40.00 Ry     beta=0.70
     Davidson diagonalization with overlap
     ethr =  4.18E-08,  avg # of iterations =  2.0

     total cpu time spent up to now is     2422.4 secs

     total energy              =   -1098.86392480 Ry
     Harris-Foulkes estimate   =   -1098.86393578 Ry
     estimated scf accuracy    <       0.00009523 Ry

     iteration #  5     ecut=    40.00 Ry     beta=0.70
     Davidson diagonalization with overlap
     ethr =  4.18E-08,  avg # of iterations =  1.0

     total cpu time spent up to now is     2443.5 secs

     total energy              =   -1098.86393057 Ry
     Harris-Foulkes estimate   =   -1098.86393187 Ry
     estimated scf accuracy    <       0.00000942 Ry

     iteration #  6     ecut=    40.00 Ry     beta=0.70
     Davidson diagonalization with overlap
     ethr =  1.24E-08,  avg # of iterations =  1.0

     total cpu time spent up to now is     2464.4 secs

     total energy              =   -1098.86393118 Ry
     Harris-Foulkes estimate   =   -1098.86393134 Ry
     estimated scf accuracy    <       0.00000033 Ry

     iteration #  7     ecut=    40.00 Ry     beta=0.70
     Davidson diagonalization with overlap
     ethr =  4.29E-10,  avg # of iterations =  2.0

     total cpu time spent up to now is     2493.2 secs

     End of self-consistent calculation

          k = 0.0625 0.1083-0.0673 (  4518 PWs)   bands (ev):

   -99.4513 -99.4478 -99.0538 -99.0525 -50.7603 -50.7022 -50.6901 -50.6846
   -50.6823 -50.6750 -50.3199 -50.3186 -50.3063 -50.3050 -50.2494 -50.2479
    -2.5081  -1.4419  -0.5577  -0.4996   1.4300   1.4595   1.5896   1.8761
     1.9745   2.0344   2.0551   2.0644   2.2750   2.4213   2.4694   3.0434
     3.1055   3.3421   3.5320   3.6703   3.7901   4.0875   4.1118   5.4269
     7.0913  10.5330  11.6275  11.7765  13.6199  14.1413

          k = 0.0625 0.2526-0.0673 (  4466 PWs)   bands (ev):

   -99.4485 -99.4456 -99.0513 -99.0500 -50.7574 -50.7525 -50.7319 -50.7010
   -50.6890 -50.6821 -50.3709 -50.3696 -50.3208 -50.3195 -50.2438 -50.2424
    -1.4587  -0.5013   0.2058   0.3492   1.0018   1.2673   1.3594   1.7048
     1.8087   1.9430   2.1889   2.3951   2.6207   2.7040   2.8456   2.9254
     3.1631   3.3166   3.4271   3.5445   3.8446   4.0731   4.5586   6.3306
     8.9500  11.2619  12.5472  12.7032  14.5775  14.9204

          k = 0.0625 0.3969-0.0673 (  4438 PWs)   bands (ev):

   -99.4451 -99.4431 -99.0484 -99.0471 -50.8136 -50.8054 -50.7266 -50.7191
   -50.7047 -50.6843 -50.4305 -50.4292 -50.3378 -50.3366 -50.2374 -50.2359
    -0.4973  -0.1236   0.2650   0.3874   0.5324   1.1138   1.4905   1.8558
     1.9881   2.2588   2.5141   2.9395   2.9742   3.1811   3.3537   3.5292
     3.6820   3.9114   3.9739   4.1669   4.3485   4.5189   5.6198   7.5809
    10.9480  12.5626  12.8315  13.6289  14.2636  14.4075

          k = 0.0625 0.5413-0.0673 (  4394 PWs)   bands (ev):

   -99.4431 -99.4419 -99.0467 -99.0454 -50.8478 -50.8384 -50.7304 -50.7168
   -50.7108 -50.6885 -50.4639 -50.4627 -50.3475 -50.3462 -50.2337 -50.2322
    -0.3947  -0.2887   0.0745   0.2409   0.3322   0.9567   1.4550   1.5509
     2.1465   2.5804   2.7341   3.0876   3.5634   3.6825   3.9680   4.0776
     4.1810   4.3098   4.5437   4.5963   6.2454   6.8812   7.7099   8.3972
     9.6669  10.2085  10.7946  12.1448  14.0867  14.5884

          k = 0.0625-0.4691-0.0673 (  4416 PWs)   bands (ev):

   -99.4438 -99.4423 -99.0473 -99.0460 -50.8357 -50.8268 -50.7270 -50.7189
   -50.7099 -50.6865 -50.4522 -50.4510 -50.3441 -50.3428 -50.2350 -50.2335
    -0.3984  -0.2171   0.1664   0.2781   0.4036   1.0112   1.4546   1.6756
     2.1771   2.3974   2.6931   2.9987   3.4688   3.5546   3.7841   3.8732
     3.9780   4.0712   4.2854   4.4318   5.0880   5.5184   6.6639   8.5763
    10.3620  11.2208  12.2051  13.3657  13.5329  14.6074

          k = 0.0625-0.3248-0.0673 (  4460 PWs)   bands (ev):

   -99.4468 -99.4443 -99.0498 -99.0485 -50.7846 -50.7784 -50.7331 -50.7106
   -50.6972 -50.6828 -50.4019 -50.4007 -50.3296 -50.3284 -50.2405 -50.2390
    -0.8629  -0.1606   0.2940   0.5413   0.7192   1.2472   1.4915   1.5854
     1.9542   2.2119   2.3292   2.4671   2.5848   2.8904   2.9596   3.2352
     3.5183   3.5603   3.8043   3.8431   3.8641   4.0926   4.9575   6.8635
    10.0052  11.8860  13.2527  13.4440  14.8151  15.2651

          k = 0.0625-0.1804-0.0673 (  4490 PWs)   bands (ev):

   -99.4501 -99.4469 -99.0527 -99.0514 -50.7564 -50.7240 -50.7108 -50.6919
   -50.6825 -50.6808 -50.3420 -50.3408 -50.3126 -50.3113 -50.2470 -50.2455
    -2.0569  -1.0111  -0.1477  -0.1180   1.2602   1.3596   1.4562   1.8064
     1.9021   1.9688   2.0959   2.2773   2.2881   2.6605   2.7583   2.8902
     3.0458   3.1249   3.3470   3.5933   3.8366   4.0771   4.2775   5.8639
     7.9488  10.8147  11.9976  12.1458  14.0125  14.4615

          k = 0.0625-0.0361-0.0673 (  4520 PWs)   bands (ev):

   -99.4520 -99.4484 -99.0544 -99.0531 -50.7628 -50.6907 -50.6826 -50.6822
   -50.6766 -50.6717 -50.3078 -50.3065 -50.3030 -50.3017 -50.2507 -50.2492
    -2.7461  -1.6765  -0.7907  -0.7107   1.4256   1.5882   1.6863   1.8168
     1.8670   1.9011   2.1495   2.1758   2.2712   2.3154   2.4501   3.1293
     3.1364   3.5009   3.5683   3.7644   3.9526   3.9855   4.1459   5.0996
     6.5363  10.3985  11.4421  11.5932  13.4201  13.9790

          k = 0.1875 0.3248-0.0673 (  4450 PWs)   bands (ev):

   -99.4456 -99.4435 -99.0488 -99.0475 -50.7915 -50.7913 -50.7338 -50.7186
   -50.7143 -50.6830 -50.4122 -50.4109 -50.3446 -50.3434 -50.2383 -50.2369
    -0.3278   0.2465   0.6590   0.8415   0.8754   1.1785   1.3521   1.5206
     1.7448   1.8403   1.9614   2.2405   2.3231   2.7663   3.0236   3.3672
     3.5155   3.8463   4.0122   4.1123   4.4651   4.6708   5.5978   7.4123
    10.8037  12.3610  13.8005  13.9399  14.9052  14.9743

          k = 0.1875 0.4691-0.0673 (  4428 PWs)   bands (ev):

   -99.4431 -99.4419 -99.0467 -99.0454 -50.8253 -50.8183 -50.7519 -50.7387
   -50.7114 -50.6873 -50.4429 -50.4417 -50.3689 -50.3676 -50.2337 -50.2322
     0.1667   0.2751   0.4882   0.7523   0.9734   1.1658   1.4081   1.6993
     1.9347   2.0507   2.3168   2.6639   2.8141   2.9114   3.2579   3.3655
     3.4804   3.9627   4.2260   4.4040   6.2294   6.8383   7.9210   9.5360
    10.6941  11.5710  12.5921  13.1132  13.8449  14.4364

          k = 0.1875 0.6134-0.0673 (  4432 PWs)   bands (ev):

   -99.4424 -99.4415 -99.0462 -99.0449 -50.8331 -50.8240 -50.7583 -50.7444
   -50.7068 -50.6898 -50.4497 -50.4485 -50.3750 -50.3737 -50.2326 -50.2311
     0.1690   0.2149   0.4168   0.7885   0.9251   1.1438   1.3230   1.7067
     2.0829   2.1559   2.2361   2.8571   3.0208   3.1587   3.3748   3.5310
     3.7568   3.9852   4.1019   4.3014   7.4260   8.1850   8.9539   9.2711
     9.9987  10.8393  11.1368  12.4310  13.9026  14.9015

          k = 0.1875-0.3969-0.0673 (  4450 PWs)   bands (ev):

   -99.4442 -99.4425 -99.0476 -99.0463 -50.8108 -50.8072 -50.7414 -50.7282
   -50.7172 -50.6847 -50.4299 -50.4287 -50.3580 -50.3568 -50.2357 -50.2342
     0.0758   0.3342   0.5845   0.7114   1.0322   1.2163   1.4075   1.5780
     1.8027   2.0672   2.1952   2.2630   2.4311   2.7273   3.1361   3.3259
     3.4400   3.9229   4.2181   4.3352   5.2555   5.6589   6.6324   8.3376
    11.7789  12.6179  13.1728  13.7724  14.2433  14.7918

          k = 0.1875-0.2526-0.0673 (  4452 PWs)   bands (ev):

   -99.4472 -99.4446 -99.0501 -99.0488 -50.7728 -50.7705 -50.7350 -50.7100
   -50.7003 -50.6822 -50.3916 -50.3904 -50.3314 -50.3301 -50.2412 -50.2397
    -0.9172  -0.0791   0.5076   0.6965   0.9529   1.0920   1.2624   1.6067
     1.7208   1.8285   2.0919   2.2665   2.5066   2.8054   2.9480   3.1742
     3.5313   3.6291   3.7894   3.8526   3.8704   4.0083   4.9294   6.7708
     9.8106  11.7336  13.0986  13.2540  15.0989  15.3113

          k = 0.1875-0.1083-0.0673 (  4480 PWs)   bands (ev):

   -99.4495 -99.4464 -99.0522 -99.0509 -50.7554 -50.7354 -50.7194 -50.6952
   -50.6824 -50.6823 -50.3531 -50.3518 -50.3145 -50.3133 -50.2459 -50.2444
    -1.8523  -0.8340  -0.0321   0.0475   1.1332   1.3607   1.4653   1.7326
     1.9176   1.9920   2.1949   2.3464   2.3918   2.7088   2.7535   2.8647
     3.0461   3.1009   3.3757   3.4434   3.8972   4.1431   4.3261   6.0279
     8.3019  10.9599  12.1799  12.3320  14.2026  14.6170

          k = 0.3125 0.5413-0.0673 (  4434 PWs)   bands (ev):

   -99.4417 -99.4414 -99.0458 -99.0444 -50.8112 -50.8042 -50.7904 -50.7782
   -50.6999 -50.6941 -50.4283 -50.4270 -50.4083 -50.4070 -50.2316 -50.2301
     0.5923   0.6670   0.8069   1.1219   1.1728   1.3175   1.3645   1.8264
     1.8655   2.2516   2.2932   2.4516   2.4769   2.7186   3.0355   3.0508
     3.7309   3.9581   3.9659   4.0702   8.4651   9.2834   9.5763   9.6269
    10.9375  11.0996  11.9300  12.4006  12.8073  13.4554

          k = 0.3125 0.6856-0.0673 (  4444 PWs)   bands (ev):

   -99.4422 -99.4415 -99.0461 -99.0448 -50.8210 -50.8141 -50.7718 -50.7595
   -50.7055 -50.6902 -50.4387 -50.4375 -50.3892 -50.3879 -50.2323 -50.2308
     0.4143   0.4899   0.7404   0.9750   1.1483   1.3142   1.3388   1.7044
     1.8469   2.1748   2.2560   2.5217   2.6451   2.7525   3.1134   3.2019
     3.5744   3.9582   4.1139   4.2799   7.3390   8.1599   9.2760   9.9832
    10.6468  11.3082  11.6846  12.7377  13.1255  14.7859

          k = 0.3125-0.3248-0.0673 (  4428 PWs)   bands (ev):

   -99.4441 -99.4424 -99.0475 -99.0462 -50.8227 -50.8151 -50.7344 -50.7226
   -50.7147 -50.6854 -50.4399 -50.4387 -50.3510 -50.3497 -50.2354 -50.2340
    -0.1803   0.0669   0.3348   0.5136   0.7026   1.0878   1.4690   1.7763
     1.9588   2.1335   2.4322   2.8273   2.9461   3.0722   3.3199   3.4361
     3.6237   3.9524   4.2014   4.3525   5.1906   5.5903   6.6188   8.4055
    11.2750  11.9763  12.8280  13.3921  14.0045  14.9489

          k = 0.3125-0.1804-0.0673 (  4442 PWs)   bands (ev):

   -99.4461 -99.4438 -99.0492 -99.0479 -50.7998 -50.7919 -50.7300 -50.7127
   -50.6977 -50.6836 -50.4167 -50.4154 -50.3308 -50.3296 -50.2391 -50.2376
    -0.7292  -0.2002   0.2138   0.4122   0.5573   1.1846   1.5199   1.8662
     1.9505   2.3502   2.4656   2.8430   2.9721   3.0301   3.2849   3.3385
     3.5859   3.6330   3.8096   3.8741   3.9244   4.1583   5.1124   7.0999
    10.3982  12.1955  13.5510  13.6688  13.9479  14.8640

          k = 0.4375 0.7578-0.0673 (  4424 PWs)   bands (ev):

   -99.4427 -99.4417 -99.0464 -99.0451 -50.8435 -50.8340 -50.7424 -50.7280
   -50.7091 -50.6892 -50.4597 -50.4585 -50.3591 -50.3579 -50.2331 -50.2316
    -0.1642  -0.0715   0.1753   0.4712   0.5672   1.0204   1.4474   1.5668
     2.1081   2.4452   2.4523   3.0562   3.3851   3.5351   3.7296   3.8406
     4.0516   4.1268   4.2301   4.3779   7.3270   7.7814   8.2279   8.5037
     9.7778  10.2096  11.0228  11.7840  14.3451  14.9978

          k = 0.4375-0.2526-0.0673 (  4396 PWs)   bands (ev):

   -99.4435 -99.4421 -99.0470 -99.0457 -50.8449 -50.8356 -50.7249 -50.7164
   -50.7086 -50.6877 -50.4611 -50.4599 -50.3423 -50.3411 -50.2344 -50.2329
    -0.4768  -0.3430   0.0721   0.1718   0.2775   0.9581   1.4284   1.6120
     2.1881   2.5586   2.9191   2.9698   3.6261   3.6766   4.0207   4.0717
     4.2585   4.3510   4.6672   4.6753   5.2522   5.8619   6.9866   8.7532
     9.6622  10.4508  11.4625  12.8181  13.7559  14.3163

     the Fermi energy is     6.0922 ev

!    total energy              =   -1098.86393122 Ry
     Harris-Foulkes estimate   =   -1098.86393125 Ry
     estimated scf accuracy    <       0.00000002 Ry

     The total energy is the sum of the following terms:

     one-electron contribution =   -6050.63603526 Ry
     hartree contribution      =    3021.50145811 Ry
     xc contribution           =    -101.36081157 Ry
     ewald contribution        =    2031.63187275 Ry
     smearing contrib. (-TS)   =      -0.00041525 Ry

     convergence has been achieved in   7 iterations

     Forces acting on atoms (Ry/au):

     atom    1 type  1   force =     0.00000000    0.00000000    0.00077152
     atom    2 type  1   force =     0.00000000    0.00000000   -0.00087597
     atom    3 type  1   force =     0.00000000   -0.00000000    0.00078137
     atom    4 type  1   force =     0.00000000   -0.00000000   -0.00067692

     Total force =     0.001559     Total SCF correction =     0.001652
     SCF correction compared to forces is large: reduce conv_thr to get better values

     bfgs converged in  10 scf cycles and   9 bfgs steps
     (criteria: energy <  1.0E-04, force <  1.0E-03)

     End of BFGS Geometry Optimization

     Final energy   =   -1098.8639312247 Ry
Begin final coordinates

ATOMIC_POSITIONS (alat)
Au       0.000000000  -0.000000000  -0.071640824
Au       0.500000000   0.288675000   0.797508797
Au       0.000000000   0.577350000   1.652174586
Au       0.000000000  -0.000000000   2.520937441
End final coordinates



     Writing output data file Au.save

     init_run     :      9.81s CPU      8.63s WALL (       1 calls)
     electrons    :   2746.86s CPU   2440.26s WALL (      10 calls)
     update_pot   :      4.93s CPU      5.28s WALL (       9 calls)
     forces       :     60.83s CPU     41.55s WALL (      10 calls)

     Called by init_run:
     wfcinit      :      9.07s CPU      7.85s WALL (       1 calls)
     potinit      :      0.37s CPU      0.38s WALL (       1 calls)

     Called by electrons:
     c_bands      :   2533.74s CPU   2213.15s WALL (      84 calls)
     sum_band     :    195.66s CPU    208.29s WALL (      84 calls)
     v_of_rho     :     16.50s CPU     17.75s WALL (      90 calls)
     mix_rho      :      1.48s CPU      1.57s WALL (      84 calls)

     Called by c_bands:
     init_us_2    :     26.39s CPU     26.80s WALL (    3580 calls)
     cegterg      :   2350.00s CPU   2036.34s WALL (    1680 calls)

     Called by *egterg:
     h_psi        :   1565.20s CPU   1495.20s WALL (    5931 calls)
     g_psi        :      6.35s CPU      4.49s WALL (    4231 calls)
     cdiaghg      :     75.09s CPU     78.80s WALL (    5651 calls)

     Called by h_psi:
     add_vuspsi   :    274.04s CPU    175.40s WALL (    5931 calls)

     General routines
     calbec       :    307.53s CPU    311.41s WALL (    6131 calls)
     fft          :      5.55s CPU      6.00s WALL (    1261 calls)
     ffts         :      0.41s CPU      0.49s WALL (     174 calls)
     fftw         :    962.92s CPU    992.60s WALL (  486668 calls)
     interpolate  :      1.55s CPU      1.72s WALL (     174 calls)
     davcio       :      0.01s CPU      0.06s WALL (      20 calls)

     Parallel routines
     fft_scatter  :     98.74s CPU     99.60s WALL (  488103 calls)

     PWSCF        : 47m 3.94s CPU    41m37.69s WALL


   This run was terminated on:   3:31:35  18Jun2018            

=------------------------------------------------------------------------------=
   JOB DONE.
=------------------------------------------------------------------------------=
