 CRYSTAL
 PRIMVEC
    2.883486610    0.000000000    0.000000000
   -1.441743305    2.497172655    0.000000000
    0.000000000    0.000000000   21.415655050
 PRIMCOORD
           4           1
Au        0.000000000   -0.000000000   -0.206575357
Au        1.441743305    0.832390497    2.299605937
Au        0.000000000    1.664780994    4.764023295
Au        0.000000000   -0.000000000    7.269089355
BEGIN_BLOCK_DATAGRID_3D
3D_PWSCF
DATAGRID_3D_UNKNOWN
          33          33         241
  0.000000  0.000000  0.000000
  2.883487  0.000000  0.000000
 -1.441743  2.497173  0.000000
  0.000000  0.000000 21.415655
  0.13202E+01  0.13654E+01  0.14663E+01  0.15351E+01  0.14821E+01  0.12785E+01
  0.97686E+00  0.66930E+00  0.42469E+00  0.26207E+00  0.16556E+00  0.11059E+00
  0.78578E-01  0.59279E-01  0.47842E-01  0.41866E-01  0.40027E-01  0.41866E-01
  0.47842E-01  0.59279E-01  0.78578E-01  0.11059E+00  0.16556E+00  0.26207E+00
  0.42469E+00  0.66930E+00  0.97686E+00  0.12785E+01  0.14821E+01  0.15351E+01
  0.14663E+01  0.13654E+01  0.13202E+01  0.13654E+01  0.13654E+01  0.14378E+01
  0.15198E+01  0.15200E+01  0.13787E+01  0.11124E+01  0.79989E+00  0.52420E+00
  0.32630E+00  0.20323E+00  0.13222E+00  0.91409E-01  0.67074E-01  0.52356E-01
  0.44008E-01  0.40278E-01  0.40278E-01  0.44008E-01  0.52356E-01  0.67074E-01
  0.91409E-01  0.13222E+00  0.20323E+00  0.32630E+00  0.52420E+00  0.79989E+00
  0.11124E+01  0.13787E+01  0.15200E+01  0.15198E+01  0.14378E+01  0.13654E+01
  0.14663E+01  0.14386E+01  0.14663E+01  0.15198E+01  0.15275E+01  0.14230E+01
  0.11947E+01  0.89703E+00  0.60990E+00  0.38777E+00  0.24173E+00  0.15492E+00
  0.10488E+00  0.75284E-01  0.57236E-01  0.46503E-01  0.40906E-01  0.39188E-01
  0.40906E-01  0.46503E-01  0.57236E-01  0.75284E-01  0.10488E+00  0.15492E+00
  0.24173E+00  0.38777E+00  0.60990E+00  0.89703E+00  0.11947E+01  0.14230E+01
  0.15275E+01  0.15198E+01  0.14663E+01  0.15351E+01  0.15217E+01  0.15217E+01
  0.15351E+01  0.15200E+01  0.14230E+01  0.12218E+01  0.94819E+00  0.66759E+00
  0.43634E+00  0.27560E+00  0.17620E+00  0.11788E+00  0.83336E-01  0.62155E-01
  0.49172E-01  0.41810E-01  0.38540E-01  0.38540E-01  0.41810E-01  0.49172E-01
  0.62155E-01  0.83336E-01  0.11788E+00  0.17620E+00  0.27560E+00  0.43634E+00
  0.66759E+00  0.94819E+00  0.12218E+01  0.14230E+01  0.15200E+01  0.15351E+01
  0.14821E+01  0.15225E+01  0.15311E+01  0.15225E+01  0.14821E+01  0.13787E+01
  0.11947E+01  0.94819E+00  0.68788E+00  0.46316E+00  0.29897E+00  0.19293E+00
  0.12890E+00  0.90483E-01  0.66704E-01  0.51783E-01  0.42851E-01  0.38223E-01
  0.36813E-01  0.38223E-01  0.42851E-01  0.51783E-01  0.66704E-01  0.90483E-01
  0.12890E+00  0.19293E+00  0.29897E+00  0.46316E+00  0.68788E+00  0.94819E+00
  0.11947E+01  0.13787E+01  0.14821E+01  0.12785E+01  0.13813E+01  0.14273E+01
  0.14273E+01  0.13813E+01  0.12785E+01  0.11124E+01  0.89703E+00  0.66759E+00
  0.46316E+00  0.30732E+00  0.20218E+00  0.13636E+00  0.95890E-01  0.70423E-01
  0.54077E-01  0.43880E-01  0.38115E-01  0.35580E-01  0.35580E-01  0.38115E-01
  0.43880E-01  0.54077E-01  0.70423E-01  0.95890E-01  0.13636E+00  0.20218E+00
  0.30732E+00  0.46316E+00  0.66759E+00  0.89703E+00  0.11124E+01  0.12785E+01
  0.97686E+00  0.11144E+01  0.11986E+01  0.12265E+01  0.11986E+01  0.11144E+01
  0.97686E+00  0.79989E+00  0.60990E+00  0.43634E+00  0.29897E+00  0.20218E+00
  0.13900E+00  0.98814E-01  0.72873E-01  0.55795E-01  0.44748E-01  0.38111E-01
  0.34701E-01  0.33670E-01  0.34701E-01  0.38111E-01  0.44748E-01  0.55795E-01
  0.72873E-01  0.98814E-01  0.13900E+00  0.20218E+00  0.29897E+00  0.43634E+00
  0.60990E+00  0.79989E+00  0.97686E+00  0.66930E+00  0.80131E+00  0.90002E+00
  0.95222E+00  0.95222E+00  0.90002E+00  0.80131E+00  0.66930E+00  0.52420E+00
  0.38777E+00  0.27560E+00  0.19293E+00  0.13636E+00  0.98814E-01  0.73730E-01
  0.56718E-01  0.45330E-01  0.38141E-01  0.34089E-01  0.32317E-01  0.32317E-01
  0.34089E-01  0.38141E-01  0.45330E-01  0.56718E-01  0.73730E-01  0.98814E-01
  0.13636E+00  0.19293E+00  0.27560E+00  0.38777E+00  0.52420E+00  0.66930E+00
  0.42469E+00  0.52508E+00  0.61187E+00  0.67049E+00  0.69115E+00  0.67049E+00
  0.61187E+00  0.52508E+00  0.42469E+00  0.32630E+00  0.24173E+00  0.17620E+00
  0.12890E+00  0.95890E-01  0.72873E-01  0.56718E-01  0.45534E-01  0.38164E-01
  0.33716E-01  0.31423E-01  0.30729E-01  0.31423E-01  0.33716E-01  0.38164E-01
  0.45534E-01  0.56718E-01  0.72873E-01  0.95890E-01  0.12890E+00  0.17620E+00
  0.24173E+00  0.32630E+00  0.42469E+00  0.26207E+00  0.32680E+00  0.38894E+00
  0.43819E+00  0.46544E+00  0.46544E+00  0.43819E+00  0.38894E+00  0.32680E+00
  0.26207E+00  0.20323E+00  0.15492E+00  0.11788E+00  0.90483E-01  0.70423E-01
  0.55795E-01  0.45330E-01  0.38164E-01  0.33589E-01  0.30970E-01  0.29803E-01
  0.29803E-01  0.30970E-01  0.33589E-01  0.38164E-01  0.45330E-01  0.55795E-01
  0.70423E-01  0.90483E-01  0.11788E+00  0.15492E+00  0.20323E+00  0.26207E+00
  0.16556E+00  0.20349E+00  0.24237E+00  0.27668E+00  0.30039E+00  0.30887E+00
  0.30039E+00  0.27668E+00  0.24237E+00  0.20349E+00  0.16556E+00  0.13222E+00
  0.10488E+00  0.83336E-01  0.66704E-01  0.54077E-01  0.44748E-01  0.38141E-01
  0.33716E-01  0.30970E-01  0.29496E-01  0.29034E-01  0.29496E-01  0.30970E-01
  0.33716E-01  0.38141E-01  0.44748E-01  0.54077E-01  0.66704E-01  0.83336E-01
  0.10488E+00  0.13222E+00  0.16556E+00  0.11059E+00  0.13233E+00  0.15523E+00
  0.17676E+00  0.19373E+00  0.20313E+00  0.20313E+00  0.19373E+00  0.17676E+00
  0.15523E+00  0.13233E+00  0.11059E+00  0.91409E-01  0.75284E-01  0.62155E-01
  0.51783E-01  0.43880E-01  0.38111E-01  0.34089E-01  0.31423E-01  0.29803E-01
  0.29034E-01  0.29034E-01  0.29803E-01  0.31423E-01  0.34089E-01  0.38111E-01
  0.43880E-01  0.51783E-01  0.62155E-01  0.75284E-01  0.91409E-01  0.11059E+00
  0.78578E-01  0.91435E-01  0.10499E+00  0.11812E+00  0.12929E+00  0.13685E+00
  0.13953E+00  0.13685E+00  0.12929E+00  0.11812E+00  0.10499E+00  0.91435E-01
  0.78578E-01  0.67074E-01  0.57236E-01  0.49172E-01  0.42851E-01  0.38115E-01
  0.34701E-01  0.32317E-01  0.30729E-01  0.29803E-01  0.29496E-01  0.29803E-01
  0.30729E-01  0.32317E-01  0.34701E-01  0.38115E-01  0.42851E-01  0.49172E-01
  0.57236E-01  0.67074E-01  0.78578E-01  0.59279E-01  0.67045E-01  0.75266E-01
  0.83365E-01  0.90582E-01  0.96058E-01  0.99025E-01  0.99025E-01  0.96058E-01
  0.90582E-01  0.83365E-01  0.75266E-01  0.67045E-01  0.59279E-01  0.52356E-01
  0.46503E-01  0.41810E-01  0.38223E-01  0.35580E-01  0.33670E-01  0.32317E-01
  0.31423E-01  0.30970E-01  0.30970E-01  0.31423E-01  0.32317E-01  0.33670E-01
  0.35580E-01  0.38223E-01  0.41810E-01  0.46503E-01  0.52356E-01  0.59279E-01
  0.47842E-01  0.52294E-01  0.57138E-01  0.62049E-01  0.66611E-01  0.70357E-01
  0.72830E-01  0.73696E-01  0.72830E-01  0.70357E-01  0.66611E-01  0.62049E-01
  0.57138E-01  0.52294E-01  0.47842E-01  0.44008E-01  0.40906E-01  0.38540E-01
  0.36813E-01  0.35580E-01  0.34701E-01  0.34089E-01  0.33716E-01  0.33589E-01
  0.33716E-01  0.34089E-01  0.34701E-01  0.35580E-01  0.36813E-01  0.38540E-01
  0.40906E-01  0.44008E-01  0.47842E-01  0.41866E-01  0.43928E-01  0.46358E-01
  0.48980E-01  0.51564E-01  0.53848E-01  0.55564E-01  0.56487E-01  0.56487E-01
  0.55564E-01  0.53848E-01  0.51564E-01  0.48980E-01  0.46358E-01  0.43928E-01
  0.41866E-01  0.40278E-01  0.39188E-01  0.38540E-01  0.38223E-01  0.38115E-01
  0.38111E-01  0.38141E-01  0.38164E-01  0.38164E-01  0.38141E-01  0.38111E-01
  0.38115E-01  0.38223E-01  0.38540E-01  0.39188E-01  0.40278E-01  0.41866E-01
  0.40027E-01  0.40190E-01  0.40737E-01  0.41570E-01  0.42556E-01  0.43544E-01
  0.44386E-01  0.44952E-01  0.45152E-01  0.44952E-01  0.44386E-01  0.43544E-01
  0.42556E-01  0.41570E-01  0.40737E-01  0.40190E-01  0.40027E-01  0.40278E-01
  0.40906E-01  0.41810E-01  0.42851E-01  0.43880E-01  0.44748E-01  0.45330E-01
  0.45534E-01  0.45330E-01  0.44748E-01  0.43880E-01  0.42851E-01  0.41810E-01
  0.40906E-01  0.40278E-01  0.40027E-01  0.41866E-01  0.40190E-01  0.39011E-01
  0.38279E-01  0.37888E-01  0.37719E-01  0.37667E-01  0.37664E-01  0.37671E-01
  0.37671E-01  0.37664E-01  0.37667E-01  0.37719E-01  0.37888E-01  0.38279E-01
  0.39011E-01  0.40190E-01  0.41866E-01  0.44008E-01  0.46503E-01  0.49172E-01
  0.51783E-01  0.54077E-01  0.55795E-01  0.56718E-01  0.56718E-01  0.55795E-01
  0.54077E-01  0.51783E-01  0.49172E-01  0.46503E-01  0.44008E-01  0.41866E-01
  0.47842E-01  0.43928E-01  0.40737E-01  0.38279E-01  0.36466E-01  0.35157E-01
  0.34214E-01  0.33555E-01  0.33153E-01  0.33016E-01  0.33153E-01  0.33555E-01
  0.34214E-01  0.35157E-01  0.36466E-01  0.38279E-01  0.40737E-01  0.43928E-01
  0.47842E-01  0.52356E-01  0.57236E-01  0.62155E-01  0.66704E-01  0.70423E-01
  0.72873E-01  0.73730E-01  0.72873E-01  0.70423E-01  0.66704E-01  0.62155E-01
  0.57236E-01  0.52356E-01  0.47842E-01  0.59279E-01  0.52294E-01  0.46358E-01
  0.41570E-01  0.37888E-01  0.35157E-01  0.33171E-01  0.31758E-01  0.30824E-01
  0.30350E-01  0.30350E-01  0.30824E-01  0.31758E-01  0.33171E-01  0.35157E-01
  0.37888E-01  0.41570E-01  0.46358E-01  0.52294E-01  0.59279E-01  0.67074E-01
  0.75284E-01  0.83336E-01  0.90483E-01  0.95890E-01  0.98814E-01  0.98814E-01
  0.95890E-01  0.90483E-01  0.83336E-01  0.75284E-01  0.67074E-01  0.59279E-01
  0.78578E-01  0.67045E-01  0.57138E-01  0.48980E-01  0.42556E-01  0.37719E-01
  0.34214E-01  0.31758E-01  0.30118E-01  0.29162E-01  0.28845E-01  0.29162E-01
  0.30118E-01  0.31758E-01  0.34214E-01  0.37719E-01  0.42556E-01  0.48980E-01
  0.57138E-01  0.67045E-01  0.78578E-01  0.91409E-01  0.10488E+00  0.11788E+00
  0.12890E+00  0.13636E+00  0.13900E+00  0.13636E+00  0.12890E+00  0.11788E+00
  0.10488E+00  0.91409E-01  0.78578E-01  0.11059E+00  0.91435E-01  0.75266E-01
  0.62049E-01  0.51564E-01  0.43544E-01  0.37667E-01  0.33555E-01  0.30824E-01
  0.29162E-01  0.28373E-01  0.28373E-01  0.29162E-01  0.30824E-01  0.33555E-01
  0.37667E-01  0.43544E-01  0.51564E-01  0.62049E-01  0.75266E-01  0.91435E-01
  0.11059E+00  0.13222E+00  0.15492E+00  0.17620E+00  0.19293E+00  0.20218E+00
  0.20218E+00  0.19293E+00  0.17620E+00  0.15492E+00  0.13222E+00  0.11059E+00
  0.16556E+00  0.13233E+00  0.10499E+00  0.83365E-01  0.66611E-01  0.53848E-01
  0.44386E-01  0.37664E-01  0.33153E-01  0.30350E-01  0.28845E-01  0.28373E-01
  0.28845E-01  0.30350E-01  0.33153E-01  0.37664E-01  0.44386E-01  0.53848E-01
  0.66611E-01  0.83365E-01  0.10499E+00  0.13233E+00  0.16556E+00  0.20323E+00
  0.24173E+00  0.27560E+00  0.29897E+00  0.30732E+00  0.29897E+00  0.27560E+00
  0.24173E+00  0.20323E+00  0.16556E+00  0.26207E+00  0.20349E+00  0.15523E+00
  0.11812E+00  0.90582E-01  0.70357E-01  0.55564E-01  0.44952E-01  0.37671E-01
  0.33016E-01  0.30350E-01  0.29162E-01  0.29162E-01  0.30350E-01  0.33016E-01
  0.37671E-01  0.44952E-01  0.55564E-01  0.70357E-01  0.90582E-01  0.11812E+00
  0.15523E+00  0.20349E+00  0.26207E+00  0.32630E+00  0.38777E+00  0.43634E+00
  0.46316E+00  0.46316E+00  0.43634E+00  0.38777E+00  0.32630E+00  0.26207E+00
  0.42469E+00  0.32680E+00  0.24237E+00  0.17676E+00  0.12929E+00  0.96058E-01
  0.72830E-01  0.56487E-01  0.45152E-01  0.37671E-01  0.33153E-01  0.30824E-01
  0.30118E-01  0.30824E-01  0.33153E-01  0.37671E-01  0.45152E-01  0.56487E-01
  0.72830E-01  0.96058E-01  0.12929E+00  0.17676E+00  0.24237E+00  0.32680E+00
  0.42469E+00  0.52420E+00  0.60990E+00  0.66759E+00  0.68788E+00  0.66759E+00
  0.60990E+00  0.52420E+00  0.42469E+00  0.66930E+00  0.52508E+00  0.38894E+00
  0.27668E+00  0.19373E+00  0.13685E+00  0.99025E-01  0.73696E-01  0.56487E-01
  0.44952E-01  0.37664E-01  0.33555E-01  0.31758E-01  0.31758E-01  0.33555E-01
  0.37664E-01  0.44952E-01  0.56487E-01  0.73696E-01  0.99025E-01  0.13685E+00
  0.19373E+00  0.27668E+00  0.38894E+00  0.52508E+00  0.66930E+00  0.79989E+00
  0.89703E+00  0.94819E+00  0.94819E+00  0.89703E+00  0.79989E+00  0.66930E+00
  0.97686E+00  0.80131E+00  0.61187E+00  0.43819E+00  0.30039E+00  0.20313E+00
  0.13953E+00  0.99025E-01  0.72830E-01  0.55564E-01  0.44386E-01  0.37667E-01
  0.34214E-01  0.33171E-01  0.34214E-01  0.37667E-01  0.44386E-01  0.55564E-01
  0.72830E-01  0.99025E-01  0.13953E+00  0.20313E+00  0.30039E+00  0.43819E+00
  0.61187E+00  0.80131E+00  0.97686E+00  0.11124E+01  0.11947E+01  0.12218E+01
  0.11947E+01  0.11124E+01  0.97686E+00  0.12785E+01  0.11144E+01  0.90002E+00
  0.67049E+00  0.46544E+00  0.30887E+00  0.20313E+00  0.13685E+00  0.96058E-01
  0.70357E-01  0.53848E-01  0.43544E-01  0.37719E-01  0.35157E-01  0.35157E-01
  0.37719E-01  0.43544E-01  0.53848E-01  0.70357E-01  0.96058E-01  0.13685E+00
  0.20313E+00  0.30887E+00  0.46544E+00  0.67049E+00  0.90002E+00  0.11144E+01
  0.12785E+01  0.13787E+01  0.14230E+01  0.14230E+01  0.13787E+01  0.12785E+01
  0.14821E+01  0.13813E+01  0.11986E+01  0.95222E+00  0.69115E+00  0.46544E+00
  0.30039E+00  0.19373E+00  0.12929E+00  0.90582E-01  0.66611E-01  0.51564E-01
  0.42556E-01  0.37888E-01  0.36466E-01  0.37888E-01  0.42556E-01  0.51564E-01
  0.66611E-01  0.90582E-01  0.12929E+00  0.19373E+00  0.30039E+00  0.46544E+00
  0.69115E+00  0.95222E+00  0.11986E+01  0.13813E+01  0.14821E+01  0.15200E+01
  0.15275E+01  0.15200E+01  0.14821E+01  0.15351E+01  0.15225E+01  0.14273E+01
  0.12265E+01  0.95222E+00  0.67049E+00  0.43819E+00  0.27668E+00  0.17676E+00
  0.11812E+00  0.83365E-01  0.62049E-01  0.48980E-01  0.41570E-01  0.38279E-01
  0.38279E-01  0.41570E-01  0.48980E-01  0.62049E-01  0.83365E-01  0.11812E+00
  0.17676E+00  0.27668E+00  0.43819E+00  0.67049E+00  0.95222E+00  0.12265E+01
  0.14273E+01  0.15225E+01  0.15351E+01  0.15198E+01  0.15198E+01  0.15351E+01
  0.14663E+01  0.15217E+01  0.15311E+01  0.14273E+01  0.11986E+01  0.90002E+00
  0.61187E+00  0.38894E+00  0.24237E+00  0.15523E+00  0.10499E+00  0.75266E-01
  0.57138E-01  0.46358E-01  0.40737E-01  0.39011E-01  0.40737E-01  0.46358E-01
  0.57138E-01  0.75266E-01  0.10499E+00  0.15523E+00  0.24237E+00  0.38894E+00
  0.61187E+00  0.90002E+00  0.11986E+01  0.14273E+01  0.15311E+01  0.15217E+01
  0.14663E+01  0.14378E+01  0.14663E+01  0.13654E+01  0.14386E+01  0.15217E+01
  0.15225E+01  0.13813E+01  0.11144E+01  0.80131E+00  0.52508E+00  0.32680E+00
  0.20349E+00  0.13233E+00  0.91435E-01  0.67045E-01  0.52294E-01  0.43928E-01
  0.40190E-01  0.40190E-01  0.43928E-01  0.52294E-01  0.67045E-01  0.91435E-01
  0.13233E+00  0.20349E+00  0.32680E+00  0.52508E+00  0.80131E+00  0.11144E+01
  0.13813E+01  0.15225E+01  0.15217E+01  0.14386E+01  0.13654E+01  0.13654E+01
  0.13202E+01  0.13654E+01  0.14663E+01  0.15351E+01  0.14821E+01  0.12785E+01
  0.97686E+00  0.66930E+00  0.42469E+00  0.26207E+00  0.16556E+00  0.11059E+00
  0.78578E-01  0.59279E-01  0.47842E-01  0.41866E-01  0.40027E-01  0.41866E-01
  0.47842E-01  0.59279E-01  0.78578E-01  0.11059E+00  0.16556E+00  0.26207E+00
  0.42469E+00  0.66930E+00  0.97686E+00  0.12785E+01  0.14821E+01  0.15351E+01
  0.14663E+01  0.13654E+01  0.13202E+01  0.14870E+01  0.15044E+01  0.15302E+01
  0.15027E+01  0.13695E+01  0.11300E+01  0.83902E+00  0.56802E+00  0.36214E+00
  0.22763E+00  0.14739E+00  0.10061E+00  0.72567E-01  0.55315E-01  0.45033E-01
  0.39679E-01  0.38040E-01  0.39679E-01  0.45033E-01  0.55315E-01  0.72567E-01
  0.10061E+00  0.14739E+00  0.22763E+00  0.36214E+00  0.56802E+00  0.83902E+00
  0.11300E+01  0.13695E+01  0.15027E+01  0.15302E+01  0.15044E+01  0.14870E+01
  0.15044E+01  0.15044E+01  0.15253E+01  0.15216E+01  0.14348E+01  0.12390E+01
  0.96525E+00  0.68092E+00  0.44510E+00  0.28066E+00  0.17887E+00  0.11920E+00
  0.83928E-01  0.62343E-01  0.49126E-01  0.41630E-01  0.38299E-01  0.38299E-01
  0.41630E-01  0.49126E-01  0.62343E-01  0.83928E-01  0.11920E+00  0.17887E+00
  0.28066E+00  0.44510E+00  0.68092E+00  0.96525E+00  0.12390E+01  0.14348E+01
  0.15216E+01  0.15253E+01  0.15044E+01  0.15302E+01  0.15261E+01  0.15302E+01
  0.15216E+01  0.14537E+01  0.12916E+01  0.10451E+01  0.76678E+00  0.51730E+00
  0.33145E+00  0.21079E+00  0.13845E+00  0.95712E-01  0.69703E-01  0.53546E-01
  0.43896E-01  0.38883E-01  0.37351E-01  0.38883E-01  0.43896E-01  0.53546E-01
  0.69703E-01  0.95712E-01  0.13845E+00  0.21079E+00  0.33145E+00  0.51730E+00
  0.76678E+00  0.10451E+01  0.12916E+01  0.14537E+01  0.15216E+01  0.15302E+01
  0.15027E+01  0.15235E+01  0.15235E+01  0.15027E+01  0.14348E+01  0.12916E+01
  0.10722E+01  0.81278E+00  0.56637E+00  0.37170E+00  0.23877E+00  0.15632E+00
  0.10696E+00  0.76868E-01  0.57994E-01  0.46317E-01  0.39705E-01  0.36782E-01
  0.36782E-01  0.39705E-01  0.46317E-01  0.57994E-01  0.76868E-01  0.10696E+00
  0.15632E+00  0.23877E+00  0.37170E+00  0.56637E+00  0.81278E+00  0.10722E+01
  0.12916E+01  0.14348E+01  0.15027E+01  0.13695E+01  0.14374E+01  0.14573E+01
  0.14374E+01  0.13695E+01  0.12390E+01  0.10451E+01  0.81278E+00  0.58373E+00
  0.39399E+00  0.25804E+00  0.17029E+00  0.11641E+00  0.83182E-01  0.62095E-01
  0.48687E-01  0.40649E-01  0.36499E-01  0.35240E-01  0.36499E-01  0.40649E-01
  0.48687E-01  0.62095E-01  0.83182E-01  0.11641E+00  0.17029E+00  0.25804E+00
  0.39399E+00  0.58373E+00  0.81278E+00  0.10451E+01  0.12390E+01  0.13695E+01
  0.11300E+01  0.12416E+01  0.12960E+01  0.12960E+01  0.12416E+01  0.11300E+01
  0.96525E+00  0.76678E+00  0.56637E+00  0.39399E+00  0.26493E+00  0.17798E+00
  0.12276E+00  0.87929E-01  0.65439E-01  0.50773E-01  0.41583E-01  0.36398E-01
  0.34126E-01  0.34126E-01  0.36398E-01  0.41583E-01  0.50773E-01  0.65439E-01
  0.87929E-01  0.12276E+00  0.17798E+00  0.26493E+00  0.39399E+00  0.56637E+00
  0.76678E+00  0.96525E+00  0.11300E+01  0.83902E+00  0.96731E+00  0.10491E+01
  0.10769E+01  0.10491E+01  0.96731E+00  0.83902E+00  0.68092E+00  0.51730E+00
  0.37170E+00  0.25804E+00  0.17798E+00  0.12500E+00  0.90486E-01  0.67636E-01
  0.52336E-01  0.42375E-01  0.36391E-01  0.33321E-01  0.32395E-01  0.33321E-01
  0.36391E-01  0.42375E-01  0.52336E-01  0.67636E-01  0.90486E-01  0.12500E+00
  0.17798E+00  0.25804E+00  0.37170E+00  0.51730E+00  0.68092E+00  0.83902E+00
  0.56802E+00  0.68233E+00  0.76976E+00  0.81680E+00  0.81680E+00  0.76976E+00
  0.68233E+00  0.56802E+00  0.44510E+00  0.33145E+00  0.23877E+00  0.17029E+00
  0.12276E+00  0.90486E-01  0.68403E-01  0.53175E-01  0.42909E-01  0.36416E-01
  0.32755E-01  0.31152E-01  0.31152E-01  0.32755E-01  0.36416E-01  0.42909E-01
  0.53175E-01  0.68403E-01  0.90486E-01  0.12276E+00  0.17029E+00  0.23877E+00
  0.33145E+00  0.44510E+00  0.56802E+00  0.36214E+00  0.44595E+00  0.51922E+00
  0.56922E+00  0.58695E+00  0.56922E+00  0.51922E+00  0.44595E+00  0.36214E+00
  0.28066E+00  0.21079E+00  0.15632E+00  0.11641E+00  0.87929E-01  0.67636E-01
  0.53175E-01  0.43097E-01  0.36438E-01  0.32409E-01  0.30323E-01  0.29688E-01
  0.30323E-01  0.32409E-01  0.36438E-01  0.43097E-01  0.53175E-01  0.67636E-01
  0.87929E-01  0.11641E+00  0.15632E+00  0.21079E+00  0.28066E+00  0.36214E+00
  0.22763E+00  0.28111E+00  0.33254E+00  0.37345E+00  0.39617E+00  0.39617E+00
  0.37345E+00  0.33254E+00  0.28111E+00  0.22763E+00  0.17887E+00  0.13845E+00
  0.10696E+00  0.83182E-01  0.65439E-01  0.52336E-01  0.42909E-01  0.36438E-01
  0.32291E-01  0.29899E-01  0.28824E-01  0.28824E-01  0.29899E-01  0.32291E-01
  0.36438E-01  0.42909E-01  0.52336E-01  0.65439E-01  0.83182E-01  0.10696E+00
  0.13845E+00  0.17887E+00  0.22763E+00  0.14739E+00  0.17907E+00  0.21133E+00
  0.23971E+00  0.25932E+00  0.26633E+00  0.25932E+00  0.23971E+00  0.21133E+00
  0.17907E+00  0.14739E+00  0.11920E+00  0.95712E-01  0.76868E-01  0.62095E-01
  0.50773E-01  0.42375E-01  0.36416E-01  0.32409E-01  0.29899E-01  0.28535E-01
  0.28104E-01  0.28535E-01  0.29899E-01  0.32409E-01  0.36416E-01  0.42375E-01
  0.50773E-01  0.62095E-01  0.76868E-01  0.95712E-01  0.11920E+00  0.14739E+00
  0.10061E+00  0.11925E+00  0.13864E+00  0.15673E+00  0.17090E+00  0.17873E+00
  0.17873E+00  0.17090E+00  0.15673E+00  0.13864E+00  0.11925E+00  0.10061E+00
  0.83928E-01  0.69703E-01  0.57994E-01  0.48687E-01  0.41583E-01  0.36391E-01
  0.32755E-01  0.30323E-01  0.28824E-01  0.28104E-01  0.28104E-01  0.28824E-01
  0.30323E-01  0.32755E-01  0.36391E-01  0.41583E-01  0.48687E-01  0.57994E-01
  0.69703E-01  0.83928E-01  0.10061E+00  0.72567E-01  0.83886E-01  0.95693E-01
  0.10702E+00  0.11657E+00  0.12301E+00  0.12528E+00  0.12301E+00  0.11657E+00
  0.10702E+00  0.95693E-01  0.83886E-01  0.72567E-01  0.62343E-01  0.53546E-01
  0.46317E-01  0.40649E-01  0.36398E-01  0.33321E-01  0.31152E-01  0.29688E-01
  0.28824E-01  0.28535E-01  0.28824E-01  0.29688E-01  0.31152E-01  0.33321E-01
  0.36398E-01  0.40649E-01  0.46317E-01  0.53546E-01  0.62343E-01  0.72567E-01
  0.55315E-01  0.62245E-01  0.69549E-01  0.76704E-01  0.83041E-01  0.87824E-01
  0.90408E-01  0.90408E-01  0.87824E-01  0.83041E-01  0.76704E-01  0.69549E-01
  0.62245E-01  0.55315E-01  0.49126E-01  0.43896E-01  0.39705E-01  0.36499E-01
  0.34126E-01  0.32395E-01  0.31152E-01  0.30323E-01  0.29899E-01  0.29899E-01
  0.30323E-01  0.31152E-01  0.32395E-01  0.34126E-01  0.36499E-01  0.39705E-01
  0.43896E-01  0.49126E-01  0.55315E-01  0.45033E-01  0.48993E-01  0.53309E-01
  0.57686E-01  0.61750E-01  0.65081E-01  0.67277E-01  0.68046E-01  0.67277E-01
  0.65081E-01  0.61750E-01  0.57686E-01  0.53309E-01  0.48993E-01  0.45033E-01
  0.41630E-01  0.38883E-01  0.36782E-01  0.35240E-01  0.34126E-01  0.33321E-01
  0.32755E-01  0.32409E-01  0.32291E-01  0.32409E-01  0.32755E-01  0.33321E-01
  0.34126E-01  0.35240E-01  0.36782E-01  0.38883E-01  0.41630E-01  0.45033E-01
  0.39679E-01  0.41478E-01  0.43609E-01  0.45920E-01  0.48209E-01  0.50240E-01
  0.51771E-01  0.52597E-01  0.52597E-01  0.51771E-01  0.50240E-01  0.48209E-01
  0.45920E-01  0.43609E-01  0.41478E-01  0.39679E-01  0.38299E-01  0.37351E-01
  0.36782E-01  0.36499E-01  0.36398E-01  0.36391E-01  0.36416E-01  0.36438E-01
  0.36438E-01  0.36416E-01  0.36391E-01  0.36398E-01  0.36499E-01  0.36782E-01
  0.37351E-01  0.38299E-01  0.39679E-01  0.38040E-01  0.38139E-01  0.38571E-01
  0.39259E-01  0.40090E-01  0.40937E-01  0.41669E-01  0.42166E-01  0.42342E-01
  0.42166E-01  0.41669E-01  0.40937E-01  0.40090E-01  0.39259E-01  0.38571E-01
  0.38139E-01  0.38040E-01  0.38299E-01  0.38883E-01  0.39705E-01  0.40649E-01
  0.41583E-01  0.42375E-01  0.42909E-01  0.43097E-01  0.42909E-01  0.42375E-01
  0.41583E-01  0.40649E-01  0.39705E-01  0.38883E-01  0.38299E-01  0.38040E-01
  0.39679E-01  0.38139E-01  0.37032E-01  0.36314E-01  0.35899E-01  0.35687E-01
  0.35595E-01  0.35563E-01  0.35556E-01  0.35556E-01  0.35563E-01  0.35595E-01
  0.35687E-01  0.35899E-01  0.36314E-01  0.37032E-01  0.38139E-01  0.39679E-01
  0.41630E-01  0.43896E-01  0.46317E-01  0.48687E-01  0.50773E-01  0.52336E-01
  0.53175E-01  0.53175E-01  0.52336E-01  0.50773E-01  0.48687E-01  0.46317E-01
  0.43896E-01  0.41630E-01  0.39679E-01  0.45033E-01  0.41478E-01  0.38571E-01
  0.36314E-01  0.34627E-01  0.33386E-01  0.32478E-01  0.31836E-01  0.31443E-01
  0.31310E-01  0.31443E-01  0.31836E-01  0.32478E-01  0.33386E-01  0.34627E-01
  0.36314E-01  0.38571E-01  0.41478E-01  0.45033E-01  0.49126E-01  0.53546E-01
  0.57994E-01  0.62095E-01  0.65439E-01  0.67636E-01  0.68403E-01  0.67636E-01
  0.65439E-01  0.62095E-01  0.57994E-01  0.53546E-01  0.49126E-01  0.45033E-01
  0.55315E-01  0.48993E-01  0.43609E-01  0.39259E-01  0.35899E-01  0.33386E-01
  0.31537E-01  0.30204E-01  0.29312E-01  0.28858E-01  0.28858E-01  0.29312E-01
  0.30204E-01  0.31537E-01  0.33386E-01  0.35899E-01  0.39259E-01  0.43609E-01
  0.48993E-01  0.55315E-01  0.62343E-01  0.69703E-01  0.76868E-01  0.83182E-01
  0.87929E-01  0.90486E-01  0.90486E-01  0.87929E-01  0.83182E-01  0.76868E-01
  0.69703E-01  0.62343E-01  0.55315E-01  0.72567E-01  0.62245E-01  0.53309E-01
  0.45920E-01  0.40090E-01  0.35687E-01  0.32478E-01  0.30204E-01  0.28663E-01
  0.27755E-01  0.27451E-01  0.27755E-01  0.28663E-01  0.30204E-01  0.32478E-01
  0.35687E-01  0.40090E-01  0.45920E-01  0.53309E-01  0.62245E-01  0.72567E-01
  0.83928E-01  0.95712E-01  0.10696E+00  0.11641E+00  0.12276E+00  0.12500E+00
  0.12276E+00  0.11641E+00  0.10696E+00  0.95712E-01  0.83928E-01  0.72567E-01
  0.10061E+00  0.83886E-01  0.69549E-01  0.57686E-01  0.48209E-01  0.40937E-01
  0.35595E-01  0.31836E-01  0.29312E-01  0.27755E-01  0.27006E-01  0.27006E-01
  0.27755E-01  0.29312E-01  0.31836E-01  0.35595E-01  0.40937E-01  0.48209E-01
  0.57686E-01  0.69549E-01  0.83886E-01  0.10061E+00  0.11920E+00  0.13845E+00
  0.15632E+00  0.17029E+00  0.17798E+00  0.17798E+00  0.17029E+00  0.15632E+00
  0.13845E+00  0.11920E+00  0.10061E+00  0.14739E+00  0.11925E+00  0.95693E-01
  0.76704E-01  0.61750E-01  0.50240E-01  0.41669E-01  0.35563E-01  0.31443E-01
  0.28858E-01  0.27451E-01  0.27006E-01  0.27451E-01  0.28858E-01  0.31443E-01
  0.35563E-01  0.41669E-01  0.50240E-01  0.61750E-01  0.76704E-01  0.95693E-01
  0.11925E+00  0.14739E+00  0.17887E+00  0.21079E+00  0.23877E+00  0.25804E+00
  0.26493E+00  0.25804E+00  0.23877E+00  0.21079E+00  0.17887E+00  0.14739E+00
  0.22763E+00  0.17907E+00  0.13864E+00  0.10702E+00  0.83041E-01  0.65081E-01
  0.51771E-01  0.42166E-01  0.35556E-01  0.31310E-01  0.28858E-01  0.27755E-01
  0.27755E-01  0.28858E-01  0.31310E-01  0.35556E-01  0.42166E-01  0.51771E-01
  0.65081E-01  0.83041E-01  0.10702E+00  0.13864E+00  0.17907E+00  0.22763E+00
  0.28066E+00  0.33145E+00  0.37170E+00  0.39399E+00  0.39399E+00  0.37170E+00
  0.33145E+00  0.28066E+00  0.22763E+00  0.36214E+00  0.28111E+00  0.21133E+00
  0.15673E+00  0.11657E+00  0.87824E-01  0.67277E-01  0.52597E-01  0.42342E-01
  0.35556E-01  0.31443E-01  0.29312E-01  0.28663E-01  0.29312E-01  0.31443E-01
  0.35556E-01  0.42342E-01  0.52597E-01  0.67277E-01  0.87824E-01  0.11657E+00
  0.15673E+00  0.21133E+00  0.28111E+00  0.36214E+00  0.44510E+00  0.51730E+00
  0.56637E+00  0.58373E+00  0.56637E+00  0.51730E+00  0.44510E+00  0.36214E+00
  0.56802E+00  0.44595E+00  0.33254E+00  0.23971E+00  0.17090E+00  0.12301E+00
  0.90408E-01  0.68046E-01  0.52597E-01  0.42166E-01  0.35563E-01  0.31836E-01
  0.30204E-01  0.30204E-01  0.31836E-01  0.35563E-01  0.42166E-01  0.52597E-01
  0.68046E-01  0.90408E-01  0.12301E+00  0.17090E+00  0.23971E+00  0.33254E+00
  0.44595E+00  0.56802E+00  0.68092E+00  0.76678E+00  0.81278E+00  0.81278E+00
  0.76678E+00  0.68092E+00  0.56802E+00  0.83902E+00  0.68233E+00  0.51922E+00
  0.37345E+00  0.25932E+00  0.17873E+00  0.12528E+00  0.90408E-01  0.67277E-01
  0.51771E-01  0.41669E-01  0.35595E-01  0.32478E-01  0.31537E-01  0.32478E-01
  0.35595E-01  0.41669E-01  0.51771E-01  0.67277E-01  0.90408E-01  0.12528E+00
  0.17873E+00  0.25932E+00  0.37345E+00  0.51922E+00  0.68233E+00  0.83902E+00
  0.96525E+00  0.10451E+01  0.10722E+01  0.10451E+01  0.96525E+00  0.83902E+00
  0.11300E+01  0.96731E+00  0.76976E+00  0.56922E+00  0.39617E+00  0.26633E+00
  0.17873E+00  0.12301E+00  0.87824E-01  0.65081E-01  0.50240E-01  0.40937E-01
  0.35687E-01  0.33386E-01  0.33386E-01  0.35687E-01  0.40937E-01  0.50240E-01
  0.65081E-01  0.87824E-01  0.12301E+00  0.17873E+00  0.26633E+00  0.39617E+00
  0.56922E+00  0.76976E+00  0.96731E+00  0.11300E+01  0.12390E+01  0.12916E+01
  0.12916E+01  0.12390E+01  0.11300E+01  0.13695E+01  0.12416E+01  0.10491E+01
  0.81680E+00  0.58695E+00  0.39617E+00  0.25932E+00  0.17090E+00  0.11657E+00
  0.83041E-01  0.61750E-01  0.48209E-01  0.40090E-01  0.35899E-01  0.34627E-01
  0.35899E-01  0.40090E-01  0.48209E-01  0.61750E-01  0.83041E-01  0.11657E+00
  0.17090E+00  0.25932E+00  0.39617E+00  0.58695E+00  0.81680E+00  0.10491E+01
  0.12416E+01  0.13695E+01  0.14348E+01  0.14537E+01  0.14348E+01  0.13695E+01
  0.15027E+01  0.14374E+01  0.12960E+01  0.10769E+01  0.81680E+00  0.56922E+00
  0.37345E+00  0.23971E+00  0.15673E+00  0.10702E+00  0.76704E-01  0.57686E-01
  0.45920E-01  0.39259E-01  0.36314E-01  0.36314E-01  0.39259E-01  0.45920E-01
  0.57686E-01  0.76704E-01  0.10702E+00  0.15673E+00  0.23971E+00  0.37345E+00
  0.56922E+00  0.81680E+00  0.10769E+01  0.12960E+01  0.14374E+01  0.15027E+01
  0.15216E+01  0.15216E+01  0.15027E+01  0.15302E+01  0.15235E+01  0.14573E+01
  0.12960E+01  0.10491E+01  0.76976E+00  0.51922E+00  0.33254E+00  0.21133E+00
  0.13864E+00  0.95693E-01  0.69549E-01  0.53309E-01  0.43609E-01  0.38571E-01
  0.37032E-01  0.38571E-01  0.43609E-01  0.53309E-01  0.69549E-01  0.95693E-01
  0.13864E+00  0.21133E+00  0.33254E+00  0.51922E+00  0.76976E+00  0.10491E+01
  0.12960E+01  0.14573E+01  0.15235E+01  0.15302E+01  0.15253E+01  0.15302E+01
  0.15044E+01  0.15261E+01  0.15235E+01  0.14374E+01  0.12416E+01  0.96731E+00
  0.68233E+00  0.44595E+00  0.28111E+00  0.17907E+00  0.11925E+00  0.83886E-01
  0.62245E-01  0.48993E-01  0.41478E-01  0.38139E-01  0.38139E-01  0.41478E-01
  0.48993E-01  0.62245E-01  0.83886E-01  0.11925E+00  0.17907E+00  0.28111E+00
  0.44595E+00  0.68233E+00  0.96731E+00  0.12416E+01  0.14374E+01  0.15235E+01
  0.15261E+01  0.15044E+01  0.15044E+01  0.14870E+01  0.15044E+01  0.15302E+01
  0.15027E+01  0.13695E+01  0.11300E+01  0.83902E+00  0.56802E+00  0.36214E+00
  0.22763E+00  0.14739E+00  0.10061E+00  0.72567E-01  0.55315E-01  0.45033E-01
  0.39679E-01  0.38040E-01  0.39679E-01  0.45033E-01  0.55315E-01  0.72567E-01
  0.10061E+00  0.14739E+00  0.22763E+00  0.36214E+00  0.56802E+00  0.83902E+00
  0.11300E+01  0.13695E+01  0.15027E+01  0.15302E+01  0.15044E+01  0.14870E+01
  0.15073E+01  0.14989E+01  0.14590E+01  0.13563E+01  0.11737E+01  0.93036E+00
  0.67464E+00  0.45466E+00  0.29411E+00  0.19024E+00  0.12723E+00  0.89173E-01
  0.65498E-01  0.50605E-01  0.41689E-01  0.37073E-01  0.35667E-01  0.37073E-01
  0.41689E-01  0.50605E-01  0.65498E-01  0.89173E-01  0.12723E+00  0.19024E+00
  0.29411E+00  0.45466E+00  0.67464E+00  0.93036E+00  0.11737E+01  0.13563E+01
  0.14590E+01  0.14989E+01  0.15073E+01  0.14989E+01  0.14989E+01  0.14742E+01
  0.14008E+01  0.12539E+01  0.10356E+01  0.78240E+00  0.54482E+00  0.35838E+00
  0.23128E+00  0.15221E+00  0.10453E+00  0.75232E-01  0.56747E-01  0.45288E-01