
     Program PWSCF v.5.1 starts on 18Jun2018 at  4:39:23 

     This program is part of the open-source Quantum ESPRESSO suite
     for quantum simulation of materials; please cite
         "P. Giannozzi et al., J. Phys.:Condens. Matter 21 395502 (2009);
          URL http://www.quantum-espresso.org", 
     in publications or presentations arising from this work. More details at
     http://www.quantum-espresso.org/quote

     Parallel version (MPI), running on     1 processors
     Waiting for input...
     Reading input from standard input
Warning: card &CELL ignored
Warning: card / ignored

     Current dimensions of program PWSCF are:
     Max number of different atomic species (ntypx) = 10
     Max number of k-points (npk) =  40000
     Max angular momentum in pseudopotentials (lmaxx) =  3
               file C.pbe-n-kjpaw_psl.1.0.0.UPF: wavefunction(s)  2S 2P renormalized
               file O.pbe-n-kjpaw_psl.0.1.U: wavefunction(s)  2P renormalized

     Subspace diagonalization in iterative solution of the eigenvalue problem:
     a serial algorithm will be used


     G-vector sticks info
     --------------------
     sticks:   dense  smooth     PW     G-vecs:    dense   smooth      PW
     Sum         649     313    109               100611    35335    6935



     bravais-lattice index     =            4
     lattice parameter (alat)  =       5.4490  a.u.
     unit-cell volume          =    1040.6255 (a.u.)^3
     number of atoms/cell      =            2
     number of atomic types    =            2
     number of electrons       =        10.00
     number of Kohn-Sham states=            9
     kinetic-energy cutoff     =      40.0000  Ry
     charge density cutoff     =     320.0000  Ry
     convergence threshold     =      1.0E-06
     mixing beta               =       0.7000
     number of iterations used =            8  plain     mixing
     Exchange-correlation      =  SLA  PW   PBX  PBC ( 1  4  3  4 0)
     nstep                     =           50


     celldm(1)=   5.449000  celldm(2)=   0.000000  celldm(3)=   7.427000
     celldm(4)=   0.000000  celldm(5)=   0.000000  celldm(6)=   0.000000

     crystal axes: (cart. coord. in units of alat)
               a(1) = (   1.000000   0.000000   0.000000 )  
               a(2) = (  -0.500000   0.866025   0.000000 )  
               a(3) = (   0.000000   0.000000   7.427000 )  

     reciprocal axes: (cart. coord. in units 2 pi/alat)
               b(1) = (  1.000000  0.577350 -0.000000 )  
               b(2) = (  0.000000  1.154701  0.000000 )  
               b(3) = (  0.000000 -0.000000  0.134644 )  


     PseudoPot. # 1 for  C read from file:
     /home/oropebuen/Documents/Job/Absortion/SSSP_efficiency_pseudos/C.pbe-n-kjpaw_psl.1.0.0.UPF
     MD5 check sum: 8e281b34a927efac7e739263a90d7aed
     Pseudo is Projector augmented-wave + core cor, Zval =  4.0
     Generated using "atomic" code by A. Dal Corso  v.5.1
     Shape of augmentation charge: PSQ
     Using radial grid of 1073 points,  4 beta functions with: 
                l(1) =   0
                l(2) =   0
                l(3) =   1
                l(4) =   1
     Q(r) pseudized with 0 coefficients 


     PseudoPot. # 2 for  O read from file:
     /home/oropebuen/Documents/Job/Absortion/SSSP_efficiency_pseudos/O.pbe-n-kjpaw_psl.0.1.U
     MD5 check sum: 3f94a2996a3169367d6eb21d9b593f20
     Pseudo is Projector augmented-wave + core cor, Zval =  6.0
     Generated using "atomic" code by A. Dal Corso  v.5.0.99 svn rev. 10869
     Shape of augmentation charge: BESSEL
     Using radial grid of 1095 points,  4 beta functions with: 
                l(1) =   0
                l(2) =   0
                l(3) =   1
                l(4) =   1
     Q(r) pseudized with 0 coefficients 


     atomic species   valence    mass     pseudopotential
        C              4.00    12.01070      C( 1.00)
        O              6.00    15.99940      O( 1.00)

      2 Sym. Ops. (no inversion) found



   Cartesian axes

     site n.     atom                  positions (alat units)
         1           C   tau(   1) = (   0.5000000   0.0000000   3.0737340  )
         2           O   tau(   2) = (   0.5000010   0.0010000   3.4648430  )

     number of k points=    52  gaussian smearing, width (Ry)=  0.0100
                       cart. coord. in units 2pi/alat
        k(    1) = (   0.0625000   0.1082532  -0.0673219), wk =   0.0416667
        k(    2) = (   0.0625000   0.2525907  -0.0673219), wk =   0.0416667
        k(    3) = (   0.0625000   0.3969283  -0.0673219), wk =   0.0416667
        k(    4) = (   0.0625000   0.5412659  -0.0673219), wk =   0.0416667
        k(    5) = (   0.0625000  -0.4690971  -0.0673219), wk =   0.0416667
        k(    6) = (   0.0625000  -0.3247595  -0.0673219), wk =   0.0416667
        k(    7) = (   0.0625000  -0.1804220  -0.0673219), wk =   0.0416667
        k(    8) = (   0.0625000  -0.0360844  -0.0673219), wk =   0.0416667
        k(    9) = (   0.1875000   0.3247595  -0.0673219), wk =   0.0416667
        k(   10) = (   0.1875000   0.4690971  -0.0673219), wk =   0.0416667
        k(   11) = (   0.1875000   0.6134347  -0.0673219), wk =   0.0416667
        k(   12) = (   0.1875000  -0.3969283  -0.0673219), wk =   0.0416667
        k(   13) = (   0.1875000  -0.2525907  -0.0673219), wk =   0.0416667
        k(   14) = (   0.1875000  -0.1082532  -0.0673219), wk =   0.0416667
        k(   15) = (   0.3125000   0.5412659  -0.0673219), wk =   0.0416667
        k(   16) = (   0.3125000   0.6856034  -0.0673219), wk =   0.0416667
        k(   17) = (   0.3125000  -0.3247595  -0.0673219), wk =   0.0416667
        k(   18) = (   0.3125000  -0.1804220  -0.0673219), wk =   0.0416667
        k(   19) = (   0.4375000   0.7577722  -0.0673219), wk =   0.0416667
        k(   20) = (   0.4375000  -0.2525907  -0.0673219), wk =   0.0416667
        k(   21) = (   0.1250000   0.0000000  -0.0673219), wk =   0.0208333
        k(   22) = (  -0.1875000   0.1804220  -0.0673219), wk =   0.0416667
        k(   23) = (   0.2500000   0.0721688  -0.0673219), wk =   0.0416667
        k(   24) = (  -0.3125000   0.2525907  -0.0673219), wk =   0.0416667
        k(   25) = (   0.3750000   0.1443376  -0.0673219), wk =   0.0416667
        k(   26) = (  -0.4375000   0.3247595  -0.0673219), wk =   0.0416667
        k(   27) = (   0.5000000   0.2165064  -0.0673219), wk =   0.0416667
        k(   28) = (   0.4375000  -0.1804220  -0.0673219), wk =   0.0416667
        k(   29) = (  -0.3750000  -0.2886751  -0.0673219), wk =   0.0416667
        k(   30) = (   0.3125000  -0.1082532  -0.0673219), wk =   0.0416667
        k(   31) = (  -0.2500000  -0.2165064  -0.0673219), wk =   0.0416667
        k(   32) = (   0.1875000  -0.0360844  -0.0673219), wk =   0.0416667
        k(   33) = (  -0.1250000  -0.1443376  -0.0673219), wk =   0.0416667
        k(   34) = (   0.0000000  -0.0721688  -0.0673219), wk =   0.0208333
        k(   35) = (   0.3750000   0.0000000  -0.0673219), wk =   0.0208333
        k(   36) = (  -0.3125000   0.3969283  -0.0673219), wk =   0.0416667
        k(   37) = (   0.5000000   0.0721688  -0.0673219), wk =   0.0416667
        k(   38) = (  -0.4375000   0.4690971  -0.0673219), wk =   0.0416667
        k(   39) = (   0.6250000   0.1443376  -0.0673219), wk =   0.0416667
        k(   40) = (   0.4375000  -0.0360844  -0.0673219), wk =   0.0416667
        k(   41) = (  -0.2500000  -0.3608439  -0.0673219), wk =   0.0416667
        k(   42) = (   0.3125000   0.0360844  -0.0673219), wk =   0.0416667
        k(   43) = (  -0.1250000  -0.2886751  -0.0673219), wk =   0.0416667
        k(   44) = (   0.0000000  -0.2165064  -0.0673219), wk =   0.0208333
        k(   45) = (   0.6250000   0.0000000  -0.0673219), wk =   0.0208333
        k(   46) = (  -0.4375000   0.6134347  -0.0673219), wk =   0.0416667
        k(   47) = (   0.7500000   0.0721688  -0.0673219), wk =   0.0416667
        k(   48) = (   0.4375000   0.1082532  -0.0673219), wk =   0.0416667
        k(   49) = (  -0.1250000  -0.4330127  -0.0673219), wk =   0.0416667
        k(   50) = (   0.0000000  -0.3608439  -0.0673219), wk =   0.0208333
        k(   51) = (   0.8750000   0.0000000  -0.0673219), wk =   0.0208333
        k(   52) = (   0.0000000  -0.5051815  -0.0673219), wk =   0.0208333

     Dense  grid:   100611 G-vectors     FFT dimensions: (  32,  32, 240)

     Smooth grid:    35335 G-vectors     FFT dimensions: (  24,  24, 180)

     Largest allocated arrays     est. size (Mb)     dimensions
        Kohn-Sham Wavefunctions         0.62 Mb     (    4520,    9)
        NL pseudopotentials             1.10 Mb     (    4520,   16)
        Each V/rho on FFT grid          3.75 Mb     (  245760)
        Each G-vector array             0.77 Mb     (  100611)
        G-vector shells                 0.04 Mb     (    4911)
     Largest temporary arrays     est. size (Mb)     dimensions
        Auxiliary wavefunctions         2.48 Mb     (    4520,   36)
        Each subspace H/S matrix        0.02 Mb     (      36,   36)
        Each <psi_i|beta_j> matrix      0.00 Mb     (      16,    9)
        Arrays for rho mixing          30.00 Mb     (  245760,    8)

     Check: negative/imaginary core charge=   -0.000003    0.000000

     Initial potential from superposition of free atoms
     Check: negative starting charge=   -0.000319

     starting charge    9.99996, renormalised to   10.00000

     negative rho (up, down):  3.191E-04 0.000E+00
     Starting wfc are    8 randomized atomic wfcs +    1 random wfc
     Checking if some PAW data can be deallocated... 

     total cpu time spent up to now is       13.4 secs

     per-process dynamical memory:    82.0 Mb

     Self-consistent Calculation

     iteration #  1     ecut=    40.00 Ry     beta=0.70
     Davidson diagonalization with overlap
     ethr =  1.00E-02,  avg # of iterations =  5.9

     negative rho (up, down):  4.547E-04 0.000E+00

     total cpu time spent up to now is       51.0 secs

     total energy              =     -59.92613879 Ry
     Harris-Foulkes estimate   =     -60.04941410 Ry
     estimated scf accuracy    <       0.18570306 Ry

     iteration #  2     ecut=    40.00 Ry     beta=0.70
     Davidson diagonalization with overlap
     ethr =  1.86E-03,  avg # of iterations =  2.1

     negative rho (up, down):  4.707E-04 0.000E+00

     total cpu time spent up to now is       76.5 secs

     total energy              =     -59.87337693 Ry
     Harris-Foulkes estimate   =     -60.05991105 Ry
     estimated scf accuracy    <       0.45570660 Ry

     iteration #  3     ecut=    40.00 Ry     beta=0.70
     Davidson diagonalization with overlap
     ethr =  1.86E-03,  avg # of iterations =  2.1

     negative rho (up, down):  4.650E-04 0.000E+00

     total cpu time spent up to now is      102.6 secs

     total energy              =     -59.97673662 Ry
     Harris-Foulkes estimate   =     -59.99777141 Ry
     estimated scf accuracy    <       0.06534559 Ry

     iteration #  4     ecut=    40.00 Ry     beta=0.70
     Davidson diagonalization with overlap
     ethr =  6.53E-04,  avg # of iterations =  1.2

     negative rho (up, down):  4.776E-04 0.000E+00

     total cpu time spent up to now is      129.6 secs

     total energy              =     -59.98458234 Ry
     Harris-Foulkes estimate   =     -59.98492448 Ry
     estimated scf accuracy    <       0.00102188 Ry

     iteration #  5     ecut=    40.00 Ry     beta=0.70
     Davidson diagonalization with overlap
     ethr =  1.02E-05,  avg # of iterations =  7.4

     negative rho (up, down):  4.751E-04 0.000E+00

     total cpu time spent up to now is      177.9 secs

     total energy              =     -59.98491284 Ry
     Harris-Foulkes estimate   =     -59.98492957 Ry
     estimated scf accuracy    <       0.00005936 Ry

     iteration #  6     ecut=    40.00 Ry     beta=0.70
     Davidson diagonalization with overlap
     ethr =  5.94E-07,  avg # of iterations =  1.4

     negative rho (up, down):  4.746E-04 0.000E+00

     total cpu time spent up to now is      203.8 secs

     total energy              =     -59.98491832 Ry
     Harris-Foulkes estimate   =     -59.98491883 Ry
     estimated scf accuracy    <       0.00000210 Ry

     iteration #  7     ecut=    40.00 Ry     beta=0.70
     Davidson diagonalization with overlap
     ethr =  2.10E-08,  avg # of iterations =  2.8

     negative rho (up, down):  4.745E-04 0.000E+00

     total cpu time spent up to now is      239.3 secs

     End of self-consistent calculation

          k = 0.0625 0.1083-0.0673 (  4518 PWs)   bands (ev):

   -29.0490 -13.9154 -10.6327 -10.1133  -9.3821   0.3798   0.7644   0.9915
     1.3899

          k = 0.0625 0.2526-0.0673 (  4466 PWs)   bands (ev):

   -28.9141 -13.6716 -11.4448 -10.2995  -8.8024  -0.8020   0.4472   1.9147
     2.3086

          k = 0.0625 0.3969-0.0673 (  4438 PWs)   bands (ev):

   -28.7489 -13.3682 -12.1885 -10.5121  -8.1646  -2.2028   0.1089   3.5435
     3.9461

          k = 0.0625 0.5413-0.0673 (  4394 PWs)   bands (ev):

   -28.6521 -13.1879 -12.5675 -10.6293  -7.7097  -3.0813  -0.0676   5.7332
     6.2120

          k = 0.0625-0.4691-0.0673 (  4416 PWs)   bands (ev):

   -28.6864 -13.2519 -12.4369 -10.5886  -7.8834  -2.7595  -0.0070   4.5942
     5.0236

          k = 0.0625-0.3248-0.0673 (  4460 PWs)   bands (ev):

   -28.8291 -13.5161 -11.8465 -10.4113  -8.4843  -1.5183   0.2668   2.6445
     3.0388

          k = 0.0625-0.1804-0.0673 (  4490 PWs)   bands (ev):

   -28.9911 -13.8112 -11.0255 -10.1945  -9.1035  -0.1403   0.6234   1.3615
     1.7584

          k = 0.0625-0.0361-0.0673 (  4520 PWs)   bands (ev):

   -29.0800 -13.9709 -10.3382 -10.0706  -9.6045   0.6617   0.8220   0.8394
     1.2048

          k = 0.1875 0.3248-0.0673 (  4450 PWs)   bands (ev):

   -28.7749 -13.4170 -11.9545 -10.6637  -8.2460  -1.7116  -0.2229   3.1888
     3.5853

          k = 0.1875 0.4691-0.0673 (  4428 PWs)   bands (ev):

   -28.6533 -13.1931 -12.2789 -11.0363  -7.6829  -2.5528  -0.8232   5.1212
     5.5668

          k = 0.1875 0.6134-0.0673 (  4432 PWs)   bands (ev):

   -28.6242 -13.1395 -12.3454 -11.1295  -7.5246  -2.7844  -0.9536   6.2435
     6.7755

          k = 0.1875-0.3969-0.0673 (  4450 PWs)   bands (ev):

   -28.7065 -13.2913 -12.1475 -10.8698  -7.9446  -2.1656  -0.5697   4.0810
     4.4907

          k = 0.1875-0.2526-0.0673 (  4452 PWs)   bands (ev):

   -28.8478 -13.5507 -11.7119 -10.4597  -8.5422  -1.2479   0.1474   2.4639
     2.8570

          k = 0.1875-0.1083-0.0673 (  4480 PWs)   bands (ev):

   -28.9642 -13.7626 -11.1930 -10.2129  -8.9986  -0.4069   0.6026   1.5461
     1.9420

          k = 0.3125 0.5413-0.0673 (  4434 PWs)   bands (ev):

   -28.5986 -13.0940 -12.0022 -11.6801  -7.3659  -2.3187  -1.8646   7.1095
     7.8501

          k = 0.3125 0.6856-0.0673 (  4444 PWs)   bands (ev):

   -28.6178 -13.1290 -12.1824 -11.3706  -7.4813  -2.5123  -1.3824   6.1131
     6.6328

          k = 0.3125-0.3248-0.0673 (  4428 PWs)   bands (ev):

   -28.6993 -13.2771 -12.2789 -10.7337  -7.9262  -2.4409  -0.2912   4.2532
     4.6688

          k = 0.3125-0.1804-0.0673 (  4442 PWs)   bands (ev):

   -28.7944 -13.4518 -12.0299 -10.4064  -8.3583  -1.8754   0.2956   3.0053
     3.4022

          k = 0.4375 0.7578-0.0673 (  4420 PWs)   bands (ev):

   -28.6362 -13.1599 -12.4961 -10.8466  -7.6060  -3.0072  -0.4561   6.3721
     6.5689

          k = 0.4375-0.2526-0.0673 (  4396 PWs)   bands (ev):

   -28.6697 -13.2202 -12.5449 -10.5383  -7.8096  -2.9918   0.0944   5.0945
     5.5495

          k = 0.1250 0.0000-0.0673 (  4518 PWs)   bands (ev):

   -29.0490 -13.9154 -10.6326 -10.1133  -9.3821   0.3798   0.7643   0.9916
     1.3899

          k =-0.1875 0.1804-0.0673 (  4466 PWs)   bands (ev):

   -28.9141 -13.6716 -11.4448 -10.2995  -8.8024  -0.8020   0.4472   1.9147
     2.3086

          k = 0.2500 0.0722-0.0673 (  4466 PWs)   bands (ev):

   -28.9141 -13.6716 -11.4448 -10.2995  -8.8024  -0.8020   0.4471   1.9147
     2.3086

          k =-0.3125 0.2526-0.0673 (  4438 PWs)   bands (ev):

   -28.7489 -13.3682 -12.1885 -10.5121  -8.1646  -2.2028   0.1089   3.5435
     3.9461

          k = 0.3750 0.1443-0.0673 (  4438 PWs)   bands (ev):

   -28.7489 -13.3681 -12.1885 -10.5121  -8.1646  -2.2028   0.1089   3.5435
     3.9461

          k =-0.4375 0.3248-0.0673 (  4394 PWs)   bands (ev):

   -28.6521 -13.1878 -12.5675 -10.6293  -7.7097  -3.0813  -0.0677   5.7332
     6.2120

          k = 0.5000 0.2165-0.0673 (  4394 PWs)   bands (ev):

   -28.6521 -13.1878 -12.5675 -10.6293  -7.7097  -3.0813  -0.0677   5.7332
     6.2121

          k = 0.4375-0.1804-0.0673 (  4416 PWs)   bands (ev):

   -28.6864 -13.2519 -12.4369 -10.5886  -7.8834  -2.7595  -0.0070   4.5942
     5.0236

          k =-0.3750-0.2887-0.0673 (  4416 PWs)   bands (ev):

   -28.6864 -13.2519 -12.4369 -10.5886  -7.8834  -2.7595  -0.0070   4.5942
     5.0236

          k = 0.3125-0.1083-0.0673 (  4460 PWs)   bands (ev):

   -28.8291 -13.5161 -11.8465 -10.4113  -8.4843  -1.5183   0.2667   2.6445
     3.0388

          k =-0.2500-0.2165-0.0673 (  4460 PWs)   bands (ev):

   -28.8291 -13.5161 -11.8465 -10.4113  -8.4843  -1.5183   0.2667   2.6445
     3.0388

          k = 0.1875-0.0361-0.0673 (  4490 PWs)   bands (ev):

   -28.9911 -13.8112 -11.0255 -10.1945  -9.1035  -0.1403   0.6233   1.3615
     1.7584

          k =-0.1250-0.1443-0.0673 (  4490 PWs)   bands (ev):

   -28.9911 -13.8112 -11.0255 -10.1945  -9.1035  -0.1403   0.6234   1.3615
     1.7584

          k = 0.0000-0.0722-0.0673 (  4520 PWs)   bands (ev):

   -29.0800 -13.9709 -10.3382 -10.0706  -9.6045   0.6617   0.8222   0.8394
     1.2047

          k = 0.3750 0.0000-0.0673 (  4450 PWs)   bands (ev):

   -28.7749 -13.4170 -11.9545 -10.6637  -8.2460  -1.7116  -0.2230   3.1888
     3.5853

          k =-0.3125 0.3969-0.0673 (  4428 PWs)   bands (ev):

   -28.6533 -13.1931 -12.2789 -11.0363  -7.6829  -2.5528  -0.8232   5.1212
     5.5668

          k = 0.5000 0.0722-0.0673 (  4428 PWs)   bands (ev):

   -28.6533 -13.1931 -12.2789 -11.0363  -7.6829  -2.5528  -0.8232   5.1212
     5.5668

          k =-0.4375 0.4691-0.0673 (  4432 PWs)   bands (ev):

   -28.6242 -13.1395 -12.3454 -11.1295  -7.5246  -2.7844  -0.9536   6.2435
     6.7755

          k = 0.6250 0.1443-0.0673 (  4432 PWs)   bands (ev):

   -28.6242 -13.1395 -12.3454 -11.1295  -7.5246  -2.7844  -0.9536   6.2435
     6.7754

          k = 0.4375-0.0361-0.0673 (  4450 PWs)   bands (ev):

   -28.7065 -13.2913 -12.1475 -10.8698  -7.9446  -2.1656  -0.5697   4.0810
     4.4907

          k =-0.2500-0.3608-0.0673 (  4450 PWs)   bands (ev):

   -28.7065 -13.2913 -12.1475 -10.8698  -7.9446  -2.1656  -0.5697   4.0810
     4.4907

          k = 0.3125 0.0361-0.0673 (  4452 PWs)   bands (ev):

   -28.8478 -13.5507 -11.7119 -10.4597  -8.5422  -1.2479   0.1474   2.4639
     2.8570

          k =-0.1250-0.2887-0.0673 (  4452 PWs)   bands (ev):

   -28.8478 -13.5507 -11.7119 -10.4597  -8.5422  -1.2479   0.1474   2.4639
     2.8570

          k = 0.0000-0.2165-0.0673 (  4480 PWs)   bands (ev):

   -28.9642 -13.7626 -11.1930 -10.2129  -8.9986  -0.4069   0.6027   1.5461
     1.9420

          k = 0.6250 0.0000-0.0673 (  4434 PWs)   bands (ev):

   -28.5986 -13.0940 -12.0022 -11.6801  -7.3659  -2.3187  -1.8646   7.1095
     7.8500

          k =-0.4375 0.6134-0.0673 (  4444 PWs)   bands (ev):

   -28.6178 -13.1290 -12.1824 -11.3706  -7.4813  -2.5123  -1.3824   6.1131
     6.6328

          k = 0.7500 0.0722-0.0673 (  4444 PWs)   bands (ev):

   -28.6178 -13.1290 -12.1824 -11.3706  -7.4813  -2.5123  -1.3824   6.1131
     6.6328

          k = 0.4375 0.1083-0.0673 (  4428 PWs)   bands (ev):

   -28.6993 -13.2771 -12.2789 -10.7337  -7.9262  -2.4409  -0.2912   4.2532
     4.6688

          k =-0.1250-0.4330-0.0673 (  4428 PWs)   bands (ev):

   -28.6993 -13.2771 -12.2789 -10.7337  -7.9262  -2.4409  -0.2912   4.2532
     4.6688

          k = 0.0000-0.3608-0.0673 (  4442 PWs)   bands (ev):

   -28.7944 -13.4518 -12.0299 -10.4064  -8.3583  -1.8754   0.2957   3.0053
     3.4022

          k = 0.8750 0.0000-0.0673 (  4420 PWs)   bands (ev):

   -28.6362 -13.1599 -12.4961 -10.8466  -7.6060  -3.0071  -0.4561   6.3721
     6.5689

          k = 0.0000-0.5052-0.0673 (  4396 PWs)   bands (ev):

   -28.6697 -13.2202 -12.5449 -10.5383  -7.8096  -2.9918   0.0944   5.0945
     5.5495

     the Fermi energy is    -5.9307 ev

!    total energy              =     -59.98491873 Ry
     Harris-Foulkes estimate   =     -59.98491896 Ry
     estimated scf accuracy    <       0.00000026 Ry

     total all-electron energy =      -226.595909 Ry

     The total energy is the sum of the following terms:

     one-electron contribution =    -276.83646980 Ry
     hartree contribution      =     139.97076933 Ry
     xc contribution           =     -11.75909261 Ry
     ewald contribution        =     104.36327863 Ry
     one-center paw contrib.   =     -15.72340426 Ry
     smearing contrib. (-TS)   =      -0.00000000 Ry

     convergence has been achieved in   7 iterations

     Forces acting on atoms (Ry/au):


     negative rho (up, down):  4.745E-04 0.000E+00
     atom    1 type  1   force =     0.00000000   -0.00007737   -0.04906121
     atom    2 type  2   force =     0.00000000    0.00007737    0.04906121

     Total force =     0.069383     Total SCF correction =     0.001634

     BFGS Geometry Optimization

     number of scf cycles    =   1
     number of bfgs steps    =   0

     energy   new            =     -59.9849187261 Ry

     new trust radius        =       0.0490612757 bohr
     new conv_thr            =       0.0000010000 Ry


ATOMIC_POSITIONS (alat)
C        0.500000000  -0.000014199   3.064730290
O        0.500001000   0.001014199   3.473846710



     Writing output data file CO_bridge.save
     Check: negative starting charge=   -0.000319
     NEW-OLD atomic charge density approx. for the potential

     Check: negative/imaginary core charge=   -0.000003    0.000000
     Check: negative starting charge=   -0.000317

     negative rho (up, down):  4.458E-04 0.000E+00

     total cpu time spent up to now is      251.8 secs

     per-process dynamical memory:    79.8 Mb

     Self-consistent Calculation

     iteration #  1     ecut=    40.00 Ry     beta=0.70
     Davidson diagonalization with overlap
     ethr =  1.00E-06,  avg # of iterations =  5.0

     negative rho (up, down):  4.453E-04 0.000E+00

     total cpu time spent up to now is      312.6 secs

     total energy              =     -59.97610505 Ry
     Harris-Foulkes estimate   =     -59.96951753 Ry
     estimated scf accuracy    <       0.00595277 Ry

     iteration #  2     ecut=    40.00 Ry     beta=0.70
     Davidson diagonalization with overlap
     ethr =  5.95E-05,  avg # of iterations =  3.8

     negative rho (up, down):  4.391E-04 0.000E+00

     total cpu time spent up to now is      358.8 secs

     total energy              =     -59.97376313 Ry
     Harris-Foulkes estimate   =     -59.98276694 Ry
     estimated scf accuracy    <       0.02647732 Ry

     iteration #  3     ecut=    40.00 Ry     beta=0.70
     Davidson diagonalization with overlap
     ethr =  5.95E-05,  avg # of iterations =  3.7

     negative rho (up, down):  4.502E-04 0.000E+00

     total cpu time spent up to now is      400.1 secs

     total energy              =     -59.97845798 Ry
     Harris-Foulkes estimate   =     -59.97891848 Ry
     estimated scf accuracy    <       0.00138041 Ry

     iteration #  4     ecut=    40.00 Ry     beta=0.70
     Davidson diagonalization with overlap
     ethr =  1.38E-05,  avg # of iterations =  1.5

     negative rho (up, down):  4.492E-04 0.000E+00

     total cpu time spent up to now is      430.9 secs

     total energy              =     -59.97866921 Ry
     Harris-Foulkes estimate   =     -59.97866990 Ry
     estimated scf accuracy    <       0.00000445 Ry

     iteration #  5     ecut=    40.00 Ry     beta=0.70
     Davidson diagonalization with overlap
     ethr =  4.45E-08,  avg # of iterations =  3.4

     negative rho (up, down):  4.493E-04 0.000E+00

     total cpu time spent up to now is      477.6 secs

     total energy              =     -59.97867430 Ry
     Harris-Foulkes estimate   =     -59.97867507 Ry
     estimated scf accuracy    <       0.00000336 Ry

     iteration #  6     ecut=    40.00 Ry     beta=0.70
     Davidson diagonalization with overlap
     ethr =  3.36E-08,  avg # of iterations =  1.0

     negative rho (up, down):  4.496E-04 0.000E+00

     total cpu time spent up to now is      506.7 secs

     End of self-consistent calculation

          k = 0.0625 0.1083-0.0673 (  4518 PWs)   bands (ev):

   -28.2527 -13.9439 -10.2439  -9.5473  -9.2259  -0.1276   0.2242   1.0412
     1.3276

          k = 0.0625 0.2526-0.0673 (  4466 PWs)   bands (ev):

   -28.1077 -13.6766 -10.9845  -9.7407  -8.7941  -1.2884  -0.0870   1.9918
     2.2329

          k = 0.0625 0.3969-0.0673 (  4438 PWs)   bands (ev):

   -27.9296 -13.3387 -11.7189  -9.9616  -8.2547  -2.6622  -0.4193   3.6536
     3.8383

          k = 0.0625 0.5413-0.0673 (  4394 PWs)   bands (ev):

   -27.8250 -13.1340 -12.1048 -10.0832  -7.8469  -3.5249  -0.5928   5.8734
     6.0592

          k = 0.0625-0.4691-0.0673 (  4416 PWs)   bands (ev):

   -27.8621 -13.2072 -11.9710 -10.0409  -8.0044  -3.2087  -0.5332   4.7260
     4.8889

          k = 0.0625-0.3248-0.0673 (  4460 PWs)   bands (ev):

   -28.0162 -13.5043 -11.3769  -9.8569  -8.5311  -1.9907  -0.2642   2.7367
     2.9501

          k = 0.0625-0.1804-0.0673 (  4490 PWs)   bands (ev):

   -28.1904 -13.8300 -10.5901  -9.6316  -9.0276  -0.6396   0.0859   1.4251
     1.6910

          k = 0.0625-0.0361-0.0673 (  4520 PWs)   bands (ev):

   -28.2859 -14.0044 -10.0113  -9.5030  -9.3673   0.1667   0.2977   0.8454
     1.1444

          k = 0.1875 0.3248-0.0673 (  4450 PWs)   bands (ev):

   -27.9577 -13.3939 -11.4830 -10.1205  -8.3189  -2.1813  -0.7392   3.2928
     3.4856

          k = 0.1875 0.4691-0.0673 (  4428 PWs)   bands (ev):

   -27.8263 -13.1416 -11.8071 -10.5102  -7.8161  -3.0074  -1.3238   5.2699
     5.4191

          k = 0.1875 0.6134-0.0673 (  4432 PWs)   bands (ev):

   -27.7948 -13.0805 -11.8741 -10.6080  -7.6716  -3.2351  -1.4510   6.4106
     6.6139

          k = 0.1875-0.3969-0.0673 (  4450 PWs)   bands (ev):

   -27.8838 -13.2526 -11.6753 -10.3358  -8.0520  -2.6271  -1.0768   4.2049
     4.3700

          k = 0.1875-0.2526-0.0673 (  4452 PWs)   bands (ev):

   -28.0363 -13.5428 -11.2439  -9.9079  -8.5753  -1.7260  -0.3788   2.5526
     2.7717

          k = 0.1875-0.1083-0.0673 (  4480 PWs)   bands (ev):

   -28.1616 -13.7767 -10.7451  -9.6504  -8.9512  -0.9009   0.0648   1.6147
     1.8718

          k = 0.3125 0.5413-0.0673 (  4434 PWs)   bands (ev):

   -27.7671 -13.0299 -11.5170 -11.1811  -7.5251  -2.7806  -2.3379   7.2999
     7.6804

          k = 0.3125 0.6856-0.0673 (  4444 PWs)   bands (ev):

   -27.7880 -13.0692 -11.7053 -10.8587  -7.6312  -2.9691  -1.8680   6.2835
     6.4664

          k = 0.3125-0.3248-0.0673 (  4428 PWs)   bands (ev):

   -27.8761 -13.2363 -11.8092 -10.1941  -8.0384  -2.8966  -0.8072   4.3799
     4.5435

          k = 0.3125-0.1804-0.0673 (  4442 PWs)   bands (ev):

   -27.9787 -13.4325 -11.5598  -9.8507  -8.4263  -2.3407  -0.2378   3.1042
     3.3062

          k = 0.4375 0.7578-0.0673 (  4420 PWs)   bands (ev):

   -27.8078 -13.1027 -12.0305 -10.3120  -7.7485  -3.4527  -0.9684   6.5172
     6.6048

          k = 0.4375-0.2526-0.0673 (  4396 PWs)   bands (ev):

   -27.8440 -13.1708 -12.0818  -9.9871  -7.9399  -3.4367  -0.4362   5.2319
     5.4011

          k = 0.1250 0.0000-0.0673 (  4518 PWs)   bands (ev):

   -28.2527 -13.9439 -10.2439  -9.5473  -9.2259  -0.1276   0.2242   1.0412
     1.3276

          k =-0.1875 0.1804-0.0673 (  4466 PWs)   bands (ev):

   -28.1077 -13.6766 -10.9845  -9.7407  -8.7941  -1.2884  -0.0871   1.9918
     2.2329

          k = 0.2500 0.0722-0.0673 (  4466 PWs)   bands (ev):

   -28.1077 -13.6766 -10.9845  -9.7407  -8.7941  -1.2884  -0.0871   1.9918
     2.2329

          k =-0.3125 0.2526-0.0673 (  4438 PWs)   bands (ev):

   -27.9296 -13.3387 -11.7189  -9.9616  -8.2547  -2.6622  -0.4193   3.6536
     3.8383

          k = 0.3750 0.1443-0.0673 (  4438 PWs)   bands (ev):

   -27.9296 -13.3387 -11.7189  -9.9616  -8.2547  -2.6622  -0.4193   3.6536
     3.8383

          k =-0.4375 0.3248-0.0673 (  4394 PWs)   bands (ev):

   -27.8250 -13.1340 -12.1048 -10.0832  -7.8469  -3.5249  -0.5929   5.8735
     6.0592

          k = 0.5000 0.2165-0.0673 (  4394 PWs)   bands (ev):

   -27.8250 -13.1340 -12.1048 -10.0832  -7.8469  -3.5249  -0.5929   5.8735
     6.0592

          k = 0.4375-0.1804-0.0673 (  4416 PWs)   bands (ev):

   -27.8621 -13.2072 -11.9710 -10.0409  -8.0044  -3.2087  -0.5332   4.7260
     4.8889

          k =-0.3750-0.2887-0.0673 (  4416 PWs)   bands (ev):

   -27.8621 -13.2072 -11.9710 -10.0409  -8.0044  -3.2087  -0.5332   4.7260
     4.8889

          k = 0.3125-0.1083-0.0673 (  4460 PWs)   bands (ev):

   -28.0162 -13.5043 -11.3769  -9.8569  -8.5311  -1.9907  -0.2642   2.7367
     2.9501

          k =-0.2500-0.2165-0.0673 (  4460 PWs)   bands (ev):

   -28.0162 -13.5043 -11.3769  -9.8569  -8.5311  -1.9907  -0.2642   2.7367
     2.9501

          k = 0.1875-0.0361-0.0673 (  4490 PWs)   bands (ev):

   -28.1904 -13.8300 -10.5901  -9.6316  -9.0276  -0.6396   0.0858   1.4251
     1.6910

          k =-0.1250-0.1443-0.0673 (  4490 PWs)   bands (ev):

   -28.1904 -13.8300 -10.5901  -9.6316  -9.0276  -0.6396   0.0858   1.4251
     1.6910

          k = 0.0000-0.0722-0.0673 (  4520 PWs)   bands (ev):

   -28.2859 -14.0044 -10.0113  -9.5030  -9.3673   0.1666   0.2978   0.8454
     1.1445

          k = 0.3750 0.0000-0.0673 (  4450 PWs)   bands (ev):

   -27.9577 -13.3939 -11.4830 -10.1205  -8.3189  -2.1813  -0.7392   3.2928
     3.4856

          k =-0.3125 0.3969-0.0673 (  4428 PWs)   bands (ev):

   -27.8263 -13.1416 -11.8071 -10.5102  -7.8161  -3.0074  -1.3238   5.2699
     5.4191

          k = 0.5000 0.0722-0.0673 (  4428 PWs)   bands (ev):

   -27.8263 -13.1416 -11.8071 -10.5102  -7.8161  -3.0074  -1.3238   5.2699
     5.4191

          k =-0.4375 0.4691-0.0673 (  4432 PWs)   bands (ev):

   -27.7948 -13.0805 -11.8741 -10.6080  -7.6716  -3.2351  -1.4510   6.4106
     6.6139

          k = 0.6250 0.1443-0.0673 (  4432 PWs)   bands (ev):

   -27.7948 -13.0805 -11.8741 -10.6080  -7.6716  -3.2351  -1.4510   6.4106
     6.6139

          k = 0.4375-0.0361-0.0673 (  4450 PWs)   bands (ev):

   -27.8838 -13.2526 -11.6753 -10.3358  -8.0520  -2.6271  -1.0768   4.2049
     4.3700

          k =-0.2500-0.3608-0.0673 (  4450 PWs)   bands (ev):

   -27.8838 -13.2526 -11.6753 -10.3358  -8.0520  -2.6271  -1.0768   4.2049
     4.3700

          k = 0.3125 0.0361-0.0673 (  4452 PWs)   bands (ev):

   -28.0363 -13.5428 -11.2439  -9.9079  -8.5753  -1.7260  -0.3788   2.5526
     2.7717

          k =-0.1250-0.2887-0.0673 (  4452 PWs)   bands (ev):

   -28.0363 -13.5428 -11.2439  -9.9079  -8.5753  -1.7260  -0.3788   2.5526
     2.7717

          k = 0.0000-0.2165-0.0673 (  4480 PWs)   bands (ev):

   -28.1616 -13.7767 -10.7451  -9.6504  -8.9512  -0.9010   0.0648   1.6147
     1.8718

          k = 0.6250 0.0000-0.0673 (  4434 PWs)   bands (ev):

   -27.7671 -13.0299 -11.5170 -11.1811  -7.5251  -2.7807  -2.3379   7.2999
     7.6804

          k =-0.4375 0.6134-0.0673 (  4444 PWs)   bands (ev):

   -27.7880 -13.0692 -11.7053 -10.8587  -7.6312  -2.9691  -1.8679   6.2835
     6.4664

          k = 0.7500 0.0722-0.0673 (  4444 PWs)   bands (ev):

   -27.7880 -13.0692 -11.7053 -10.8587  -7.6312  -2.9691  -1.8680   6.2835
     6.4664

          k = 0.4375 0.1083-0.0673 (  4428 PWs)   bands (ev):

   -27.8761 -13.2363 -11.8092 -10.1941  -8.0384  -2.8966  -0.8072   4.3799
     4.5435

          k =-0.1250-0.4330-0.0673 (  4428 PWs)   bands (ev):

   -27.8761 -13.2363 -11.8092 -10.1941  -8.0384  -2.8966  -0.8072   4.3799
     4.5435

          k = 0.0000-0.3608-0.0673 (  4442 PWs)   bands (ev):

   -27.9787 -13.4326 -11.5598  -9.8507  -8.4263  -2.3407  -0.2377   3.1042
     3.3062

          k = 0.8750 0.0000-0.0673 (  4420 PWs)   bands (ev):

   -27.8078 -13.1028 -12.0305 -10.3120  -7.7485  -3.4527  -0.9684   6.5171
     6.6048

          k = 0.0000-0.5052-0.0673 (  4396 PWs)   bands (ev):

   -27.8440 -13.1708 -12.0818  -9.9871  -7.9399  -3.4367  -0.4361   5.2319
     5.4011

     the Fermi energy is    -5.7389 ev

!    total energy              =     -59.97867410 Ry
     Harris-Foulkes estimate   =     -59.97867448 Ry
     estimated scf accuracy    <       0.00000049 Ry

     total all-electron energy =      -226.589664 Ry

     The total energy is the sum of the following terms:

     one-electron contribution =    -274.19642283 Ry
     hartree contribution      =     138.71965120 Ry
     xc contribution           =     -11.65916448 Ry
     ewald contribution        =     102.88272131 Ry
     one-center paw contrib.   =     -15.72545930 Ry
     smearing contrib. (-TS)   =      -0.00000000 Ry

     convergence has been achieved in   6 iterations

     Forces acting on atoms (Ry/au):


     negative rho (up, down):  4.496E-04 0.000E+00
     atom    1 type  1   force =     0.00000000    0.00044626    0.16284637
     atom    2 type  2   force =     0.00000000   -0.00044626   -0.16284637

     Total force =     0.230300     Total SCF correction =     0.001533

     number of scf cycles    =   2
     number of bfgs steps    =   1

     energy   old            =     -59.9849187261 Ry
     energy   new            =     -59.9786740964 Ry

     CASE: energy  _new > energy  _old

     new trust radius        =       0.0106786046 bohr
     new conv_thr            =       0.0000010000 Ry


ATOMIC_POSITIONS (alat)
C        0.500000000  -0.000003090   3.071774266
O        0.500001000   0.001003090   3.466802734



     Writing output data file CO_bridge.save
     Check: negative starting charge=   -0.000317
     NEW-OLD atomic charge density approx. for the potential

     Check: negative/imaginary core charge=   -0.000003    0.000000
     Check: negative starting charge=   -0.000319

     negative rho (up, down):  4.567E-04 0.000E+00

     total cpu time spent up to now is      519.7 secs

     per-process dynamical memory:    79.8 Mb

     Self-consistent Calculation

     iteration #  1     ecut=    40.00 Ry     beta=0.70
     Davidson diagonalization with overlap
     ethr =  1.00E-06,  avg # of iterations =  5.4

     negative rho (up, down):  4.667E-04 0.000E+00

     total cpu time spent up to now is      577.8 secs

     total energy              =     -59.98425511 Ry
     Harris-Foulkes estimate   =     -59.99261884 Ry
     estimated scf accuracy    <       0.00307903 Ry

     iteration #  2     ecut=    40.00 Ry     beta=0.70
     Davidson diagonalization with overlap
     ethr =  3.08E-05,  avg # of iterations =  5.6

     negative rho (up, down):  4.802E-04 0.000E+00

     total cpu time spent up to now is      627.3 secs

     total energy              =     -59.98374880 Ry
     Harris-Foulkes estimate   =     -59.98660677 Ry
     estimated scf accuracy    <       0.00671497 Ry

     iteration #  3     ecut=    40.00 Ry     beta=0.70
     Davidson diagonalization with overlap
     ethr =  3.08E-05,  avg # of iterations =  5.2

     negative rho (up, down):  4.708E-04 0.000E+00

     total cpu time spent up to now is      668.0 secs

     total energy              =     -59.98520286 Ry
     Harris-Foulkes estimate   =     -59.98559360 Ry
     estimated scf accuracy    <       0.00115113 Ry

     iteration #  4     ecut=    40.00 Ry     beta=0.70
     Davidson diagonalization with overlap
     ethr =  1.15E-05,  avg # of iterations =  1.2

     negative rho (up, down):  4.712E-04 0.000E+00

     total cpu time spent up to now is      698.2 secs

     total energy              =     -59.98538432 Ry
     Harris-Foulkes estimate   =     -59.98538430 Ry
     estimated scf accuracy    <       0.00000255 Ry

     iteration #  5     ecut=    40.00 Ry     beta=0.70
     Davidson diagonalization with overlap
     ethr =  2.55E-08,  avg # of iterations =  3.1

     negative rho (up, down):  4.716E-04 0.000E+00

     total cpu time spent up to now is      740.2 secs

     total energy              =     -59.98538879 Ry
     Harris-Foulkes estimate   =     -59.98538916 Ry
     estimated scf accuracy    <       0.00000166 Ry

     iteration #  6     ecut=    40.00 Ry     beta=0.70
     Davidson diagonalization with overlap
     ethr =  1.66E-08,  avg # of iterations =  1.0

     negative rho (up, down):  4.717E-04 0.000E+00

     total cpu time spent up to now is      767.2 secs

     End of self-consistent calculation

          k = 0.0625 0.1083-0.0673 (  4518 PWs)   bands (ev):

   -28.8752 -13.9204 -10.5385  -9.9877  -9.3595   0.2659   0.6399   1.0071
     1.3726

          k = 0.0625 0.2526-0.0673 (  4466 PWs)   bands (ev):

   -28.7381 -13.6717 -11.3419 -10.1755  -8.8053  -0.9131   0.3242   1.9382
     2.2896

          k = 0.0625 0.3969-0.0673 (  4438 PWs)   bands (ev):

   -28.5701 -13.3612 -12.0847 -10.3900  -8.1878  -2.3077  -0.0126   3.5731
     3.9214

          k = 0.0625 0.5413-0.0673 (  4394 PWs)   bands (ev):

   -28.4716 -13.1763 -12.4650 -10.5081  -7.7428  -3.1827  -0.1884   5.7672
     6.1808

          k = 0.0625-0.4691-0.0673 (  4416 PWs)   bands (ev):

   -28.5065 -13.2420 -12.3338 -10.4671  -7.9131  -2.8621  -0.1280   4.6272
     4.9946

          k = 0.0625-0.3248-0.0673 (  4460 PWs)   bands (ev):

   -28.6517 -13.5127 -11.7424 -10.2883  -8.4984  -1.6262   0.1446   2.6711
     3.0176

          k = 0.0625-0.1804-0.0673 (  4490 PWs)   bands (ev):

   -28.8163 -13.8141 -10.9259 -10.0696  -9.0937  -0.2540   0.4995   1.3819
     1.7404

          k = 0.0625-0.0361-0.0673 (  4520 PWs)   bands (ev):

   -28.9067 -13.9769 -10.2482  -9.9446  -9.5735   0.5633   0.7143   0.8189
     1.1879

          k = 0.1875 0.3248-0.0673 (  4450 PWs)   bands (ev):

   -28.5965 -13.4113 -11.8501 -10.5433  -8.2656  -1.8189  -0.3416   3.2174
     3.5620

          k = 0.1875 0.4691-0.0673 (  4428 PWs)   bands (ev):

   -28.4728 -13.1819 -12.1745 -10.9197  -7.7152  -2.6566  -0.9380   5.1566
     5.5361

          k = 0.1875 0.6134-0.0673 (  4432 PWs)   bands (ev):

   -28.4432 -13.1269 -12.2410 -11.0139  -7.5598  -2.8874  -1.0677   6.2825
     6.7437

          k = 0.1875-0.3969-0.0673 (  4450 PWs)   bands (ev):

   -28.5269 -13.2825 -12.0431 -10.7514  -7.9715  -2.2710  -0.6861   4.1128
     4.4643

          k = 0.1875-0.2526-0.0673 (  4452 PWs)   bands (ev):

   -28.6707 -13.5481 -11.6080 -10.3373  -8.5535  -1.3571   0.0263   2.4898
     2.8364

          k = 0.1875-0.1083-0.0673 (  4480 PWs)   bands (ev):

   -28.7890 -13.7645 -11.0917 -10.0881  -8.9940  -0.5196   0.4787   1.5677
     1.9236

          k = 0.3125 0.5413-0.0673 (  4434 PWs)   bands (ev):

   -28.4171 -13.0805 -11.8947 -11.5695  -7.4037  -2.4243  -1.9730   7.1545
     7.8163

          k = 0.3125 0.6856-0.0673 (  4444 PWs)   bands (ev):

   -28.4368 -13.1162 -12.0767 -11.2571  -7.5172  -2.6167  -1.4936   6.1526
     6.5994

          k = 0.3125-0.3248-0.0673 (  4428 PWs)   bands (ev):

   -28.5197 -13.2680 -12.1751 -10.6140  -7.9540  -2.5450  -0.4098   4.2854
     4.6416

          k = 0.3125-0.1804-0.0673 (  4442 PWs)   bands (ev):

   -28.6164 -13.4469 -11.9259 -10.2832  -8.3768  -1.9816   0.1728   3.0331
     3.3796

          k = 0.4375 0.7578-0.0673 (  4420 PWs)   bands (ev):

   -28.4555 -13.1477 -12.3930 -10.7280  -7.6403  -3.1090  -0.5738   6.4095
     6.5847

          k = 0.4375-0.2526-0.0673 (  4396 PWs)   bands (ev):

   -28.4896 -13.2095 -12.4424 -10.4161  -7.8413  -3.0934  -0.0277   5.1282
     5.5179

          k = 0.1250 0.0000-0.0673 (  4518 PWs)   bands (ev):

   -28.8752 -13.9204 -10.5385  -9.9877  -9.3595   0.2659   0.6398   1.0071
     1.3727

          k =-0.1875 0.1804-0.0673 (  4466 PWs)   bands (ev):

   -28.7381 -13.6717 -11.3419 -10.1755  -8.8053  -0.9131   0.3241   1.9382
     2.2896

          k = 0.2500 0.0722-0.0673 (  4466 PWs)   bands (ev):

   -28.7381 -13.6717 -11.3419 -10.1755  -8.8053  -0.9131   0.3241   1.9382
     2.2896

          k =-0.3125 0.2526-0.0673 (  4438 PWs)   bands (ev):

   -28.5701 -13.3612 -12.0847 -10.3900  -8.1878  -2.3077  -0.0126   3.5732
     3.9216

          k = 0.3750 0.1443-0.0673 (  4438 PWs)   bands (ev):

   -28.5701 -13.3612 -12.0847 -10.3900  -8.1878  -2.3077  -0.0126   3.5731
     3.9214

          k =-0.4375 0.3248-0.0673 (  4394 PWs)   bands (ev):

   -28.4716 -13.1763 -12.4650 -10.5081  -7.7428  -3.1827  -0.1885   5.7672
     6.1809

          k = 0.5000 0.2165-0.0673 (  4394 PWs)   bands (ev):

   -28.4716 -13.1763 -12.4650 -10.5081  -7.7428  -3.1827  -0.1885   5.7672
     6.1809

          k = 0.4375-0.1804-0.0673 (  4416 PWs)   bands (ev):

   -28.5065 -13.2420 -12.3338 -10.4671  -7.9131  -2.8621  -0.1281   4.6272
     4.9946

          k =-0.3750-0.2887-0.0673 (  4416 PWs)   bands (ev):

   -28.5065 -13.2420 -12.3338 -10.4671  -7.9131  -2.8621  -0.1281   4.6272
     4.9946

          k = 0.3125-0.1083-0.0673 (  4460 PWs)   bands (ev):

   -28.6517 -13.5127 -11.7424 -10.2883  -8.4984  -1.6262   0.1445   2.6711
     3.0176

          k =-0.2500-0.2165-0.0673 (  4460 PWs)   bands (ev):

   -28.6517 -13.5127 -11.7424 -10.2883  -8.4984  -1.6262   0.1445   2.6711
     3.0176

          k = 0.1875-0.0361-0.0673 (  4490 PWs)   bands (ev):

   -28.8163 -13.8141 -10.9259 -10.0696  -9.0937  -0.2540   0.4995   1.3819
     1.7405

          k =-0.1250-0.1443-0.0673 (  4490 PWs)   bands (ev):

   -28.8163 -13.8141 -10.9259 -10.0696  -9.0937  -0.2540   0.4995   1.3819
     1.7405

          k = 0.0000-0.0722-0.0673 (  4520 PWs)   bands (ev):

   -28.9067 -13.9769 -10.2482  -9.9446  -9.5735   0.5632   0.7145   0.8189
     1.1879

          k = 0.3750 0.0000-0.0673 (  4450 PWs)   bands (ev):

   -28.5965 -13.4113 -11.8501 -10.5433  -8.2656  -1.8189  -0.3416   3.2174
     3.5620

          k =-0.3125 0.3969-0.0673 (  4428 PWs)   bands (ev):

   -28.4728 -13.1819 -12.1745 -10.9197  -7.7152  -2.6566  -0.9380   5.1566
     5.5361

          k = 0.5000 0.0722-0.0673 (  4428 PWs)   bands (ev):

   -28.4728 -13.1819 -12.1745 -10.9197  -7.7152  -2.6567  -0.9380   5.1566
     5.5362

          k =-0.4375 0.4691-0.0673 (  4432 PWs)   bands (ev):

   -28.4432 -13.1269 -12.2410 -11.0139  -7.5598  -2.8874  -1.0677   6.2825
     6.7437

          k = 0.6250 0.1443-0.0673 (  4432 PWs)   bands (ev):

   -28.4432 -13.1269 -12.2410 -11.0139  -7.5598  -2.8874  -1.0677   6.2825
     6.7437

          k = 0.4375-0.0361-0.0673 (  4450 PWs)   bands (ev):

   -28.5269 -13.2825 -12.0431 -10.7514  -7.9714  -2.2710  -0.6861   4.1128
     4.4643

          k =-0.2500-0.3608-0.0673 (  4450 PWs)   bands (ev):

   -28.5269 -13.2825 -12.0431 -10.7514  -7.9715  -2.2710  -0.6861   4.1128
     4.4643

          k = 0.3125 0.0361-0.0673 (  4452 PWs)   bands (ev):

   -28.6707 -13.5481 -11.6080 -10.3373  -8.5535  -1.3571   0.0263   2.4898
     2.8364

          k =-0.1250-0.2887-0.0673 (  4452 PWs)   bands (ev):

   -28.6707 -13.5481 -11.6080 -10.3373  -8.5535  -1.3571   0.0264   2.4898
     2.8364

          k = 0.0000-0.2165-0.0673 (  4480 PWs)   bands (ev):

   -28.7890 -13.7645 -11.0917 -10.0881  -8.9940  -0.5196   0.4787   1.5677
     1.9236

          k = 0.6250 0.0000-0.0673 (  4434 PWs)   bands (ev):

   -28.4171 -13.0805 -11.8947 -11.5695  -7.4037  -2.4244  -1.9729   7.1545
     7.8163

          k =-0.4375 0.6134-0.0673 (  4444 PWs)   bands (ev):

   -28.4368 -13.1162 -12.0767 -11.2571  -7.5172  -2.6168  -1.4936   6.1526
     6.5994

          k = 0.7500 0.0722-0.0673 (  4444 PWs)   bands (ev):

   -28.4368 -13.1162 -12.0767 -11.2571  -7.5172  -2.6167  -1.4936   6.1526
     6.5994

          k = 0.4375 0.1083-0.0673 (  4428 PWs)   bands (ev):

   -28.5197 -13.2680 -12.1751 -10.6140  -7.9540  -2.5450  -0.4097   4.2854
     4.6416

          k =-0.1250-0.4330-0.0673 (  4428 PWs)   bands (ev):

   -28.5197 -13.2680 -12.1751 -10.6140  -7.9540  -2.5450  -0.4097   4.2854
     4.6416

          k = 0.0000-0.3608-0.0673 (  4442 PWs)   bands (ev):

   -28.6164 -13.4469 -11.9259 -10.2832  -8.3768  -1.9816   0.1728   3.0331
     3.3796

          k = 0.8750 0.0000-0.0673 (  4420 PWs)   bands (ev):

   -28.4555 -13.1477 -12.3929 -10.7280  -7.6403  -3.1090  -0.5737   6.4095
     6.5847

          k = 0.0000-0.5052-0.0673 (  4396 PWs)   bands (ev):

   -28.4896 -13.2095 -12.4423 -10.4161  -7.8413  -3.0934  -0.0277   5.1282
     5.5179

     the Fermi energy is    -5.8868 ev

!    total energy              =     -59.98538867 Ry
     Harris-Foulkes estimate   =     -59.98538887 Ry
     estimated scf accuracy    <       0.00000028 Ry

     total all-electron energy =      -226.596379 Ry

     The total energy is the sum of the following terms:

     one-electron contribution =    -276.25577889 Ry
     hartree contribution      =     139.69609461 Ry
     xc contribution           =     -11.73658177 Ry
     ewald contribution        =     104.03464380 Ry
     one-center paw contrib.   =     -15.72376642 Ry
     smearing contrib. (-TS)   =      -0.00000000 Ry

     convergence has been achieved in   6 iterations

     Forces acting on atoms (Ry/au):


     negative rho (up, down):  4.717E-04 0.000E+00
     atom    1 type  1   force =     0.00000000    0.00005687    0.00418006
     atom    2 type  2   force =     0.00000000   -0.00005687   -0.00418006

     Total force =     0.005912     Total SCF correction =     0.001107
     SCF correction compared to forces is large: reduce conv_thr to get better values

     number of scf cycles    =   3
     number of bfgs steps    =   1

     energy   old            =     -59.9849187261 Ry
     energy   new            =     -59.9853886741 Ry

     CASE: energy  _new < energy  _old

     new trust radius        =       0.0008396455 bohr
     new conv_thr            =       0.0000000418 Ry


ATOMIC_POSITIONS (alat)
C        0.500000000   0.000005654   3.071928109
O        0.500001000   0.000994346   3.466648891



     Writing output data file CO_bridge.save
     Check: negative starting charge=   -0.000319
     NEW-OLD atomic charge density approx. for the potential

     Check: negative/imaginary core charge=   -0.000003    0.000000
     Check: negative starting charge=   -0.000319

     negative rho (up, down):  4.719E-04 0.000E+00

     total cpu time spent up to now is      779.5 secs

     per-process dynamical memory:    79.8 Mb

     Self-consistent Calculation

     iteration #  1     ecut=    40.00 Ry     beta=0.70
     Davidson diagonalization with overlap
     ethr =  1.00E-06,  avg # of iterations =  2.0

     Threshold (ethr) on eigenvalues was too large:
     Diagonalizing with lowered threshold

     Davidson diagonalization with overlap
     ethr =  7.67E-08,  avg # of iterations =  1.0

     negative rho (up, down):  4.717E-04 0.000E+00

     total cpu time spent up to now is      840.2 secs

     total energy              =     -59.98538773 Ry
     Harris-Foulkes estimate   =     -59.98554633 Ry
     estimated scf accuracy    <       0.00000778 Ry

     iteration #  2     ecut=    40.00 Ry     beta=0.70
     Davidson diagonalization with overlap
     ethr =  7.78E-08,  avg # of iterations =  2.0

     negative rho (up, down):  4.725E-04 0.000E+00

     total cpu time spent up to now is      875.6 secs

     total energy              =     -59.98538487 Ry
     Harris-Foulkes estimate   =     -59.98540163 Ry
     estimated scf accuracy    <       0.00005217 Ry

     iteration #  3     ecut=    40.00 Ry     beta=0.70
     Davidson diagonalization with overlap
     ethr =  7.78E-08,  avg # of iterations =  2.0

     negative rho (up, down):  4.720E-04 0.000E+00

     total cpu time spent up to now is      909.7 secs

     total energy              =     -59.98539254 Ry
     Harris-Foulkes estimate   =     -59.98539257 Ry
     estimated scf accuracy    <       0.00000005 Ry

     iteration #  4     ecut=    40.00 Ry     beta=0.70
     Davidson diagonalization with overlap
     ethr =  5.05E-10,  avg # of iterations =  2.2

     negative rho (up, down):  4.719E-04 0.000E+00

     total cpu time spent up to now is      946.5 secs

     End of self-consistent calculation

          k = 0.0625 0.1083-0.0673 (  4518 PWs)   bands (ev):

   -28.8873 -13.9188 -10.5447  -9.9962  -9.3609   0.2751   0.6498   1.0056
     1.3740

          k = 0.0625 0.2526-0.0673 (  4466 PWs)   bands (ev):

   -28.7504 -13.6704 -11.3489 -10.1839  -8.8048  -0.9041   0.3340   1.9362
     2.2911

          k = 0.0625 0.3969-0.0673 (  4438 PWs)   bands (ev):

   -28.5827 -13.3605 -12.0918 -10.3983  -8.1859  -2.2991  -0.0028   3.5706
     3.9234

          k = 0.0625 0.5413-0.0673 (  4394 PWs)   bands (ev):

   -28.4843 -13.1758 -12.4720 -10.5164  -7.7402  -3.1743  -0.1787   5.7645
     6.1835

          k = 0.0625-0.4691-0.0673 (  4416 PWs)   bands (ev):

   -28.5191 -13.2415 -12.3409 -10.4753  -7.9108  -2.8537  -0.1183   4.6244
     4.9970

          k = 0.0625-0.3248-0.0673 (  4460 PWs)   bands (ev):

   -28.6641 -13.5117 -11.7495 -10.2966  -8.4971  -1.6174   0.1544   2.6688
     3.0193

          k = 0.0625-0.1804-0.0673 (  4490 PWs)   bands (ev):

   -28.8285 -13.8126 -10.9326 -10.0780  -9.0941  -0.2448   0.5094   1.3801
     1.7419

          k = 0.0625-0.0361-0.0673 (  4520 PWs)   bands (ev):

   -28.9188 -13.9752 -10.2539  -9.9531  -9.5756   0.5720   0.7243   0.8182
     1.1892

          k = 0.1875 0.3248-0.0673 (  4450 PWs)   bands (ev):

   -28.6090 -13.4105 -11.8572 -10.5514  -8.2638  -1.8102  -0.3320   3.2149
     3.5639

          k = 0.1875 0.4691-0.0673 (  4428 PWs)   bands (ev):

   -28.4855 -13.1814 -12.1816 -10.9276  -7.7127  -2.6481  -0.9287   5.1536
     5.5387

          k = 0.1875 0.6134-0.0673 (  4432 PWs)   bands (ev):

   -28.4559 -13.1265 -12.2481 -11.0217  -7.5571  -2.8789  -1.0584   6.2794
     6.7463

          k = 0.1875-0.3969-0.0673 (  4450 PWs)   bands (ev):

   -28.5395 -13.2819 -12.0502 -10.7595  -7.9692  -2.2624  -0.6766   4.1101
     4.4665

          k = 0.1875-0.2526-0.0673 (  4452 PWs)   bands (ev):

   -28.6831 -13.5471 -11.6151 -10.3456  -8.5523  -1.3483   0.0361   2.4875
     2.8381

          k = 0.1875-0.1083-0.0673 (  4480 PWs)   bands (ev):

   -28.8013 -13.7631 -11.0986 -10.0965  -8.9940  -0.5105   0.4886   1.5658
     1.9251

          k = 0.3125 0.5413-0.0673 (  4434 PWs)   bands (ev):

   -28.4299 -13.0802 -11.9020 -11.5770  -7.4007  -2.4156  -1.9641   7.1509
     7.8192

          k = 0.3125 0.6856-0.0673 (  4444 PWs)   bands (ev):

   -28.4495 -13.1159 -12.0839 -11.2649  -7.5144  -2.6082  -1.4846   6.1493
     6.6022

          k = 0.3125-0.3248-0.0673 (  4428 PWs)   bands (ev):

   -28.5323 -13.2674 -12.1822 -10.6221  -7.9518  -2.5365  -0.4002   4.2827
     4.6439

          k = 0.3125-0.1804-0.0673 (  4442 PWs)   bands (ev):

   -28.6289 -13.4460 -11.9330 -10.2915  -8.3752  -1.9730   0.1826   3.0307
     3.3814

          k = 0.4375 0.7578-0.0673 (  4420 PWs)   bands (ev):

   -28.4681 -13.1473 -12.4000 -10.7360  -7.6376  -3.1006  -0.5642   6.4067
     6.5836

          k = 0.4375-0.2526-0.0673 (  4396 PWs)   bands (ev):

   -28.5022 -13.2089 -12.4494 -10.4244  -7.8388  -3.0851  -0.0179   5.1253
     5.5206

          k = 0.1250 0.0000-0.0673 (  4518 PWs)   bands (ev):

   -28.8873 -13.9188 -10.5447  -9.9962  -9.3609   0.2751   0.6498   1.0056
     1.3740

          k =-0.1875 0.1804-0.0673 (  4466 PWs)   bands (ev):

   -28.7504 -13.6704 -11.3489 -10.1839  -8.8048  -0.9041   0.3340   1.9362
     2.2911

          k = 0.2500 0.0722-0.0673 (  4466 PWs)   bands (ev):

   -28.7504 -13.6704 -11.3489 -10.1839  -8.8048  -0.9041   0.3340   1.9362
     2.2911

          k =-0.3125 0.2526-0.0673 (  4438 PWs)   bands (ev):

   -28.5827 -13.3605 -12.0918 -10.3983  -8.1859  -2.2991  -0.0029   3.5706
     3.9236

          k = 0.3750 0.1443-0.0673 (  4438 PWs)   bands (ev):

   -28.5827 -13.3605 -12.0918 -10.3983  -8.1859  -2.2991  -0.0029   3.5706
     3.9234

          k =-0.4375 0.3248-0.0673 (  4394 PWs)   bands (ev):

   -28.4843 -13.1758 -12.4720 -10.5164  -7.7402  -3.1743  -0.1788   5.7645
     6.1835

          k = 0.5000 0.2165-0.0673 (  4394 PWs)   bands (ev):

   -28.4843 -13.1758 -12.4720 -10.5164  -7.7402  -3.1743  -0.1788   5.7645
     6.1835

          k = 0.4375-0.1804-0.0673 (  4416 PWs)   bands (ev):

   -28.5191 -13.2414 -12.3409 -10.4753  -7.9108  -2.8537  -0.1183   4.6244
     4.9970

          k =-0.3750-0.2887-0.0673 (  4416 PWs)   bands (ev):

   -28.5191 -13.2414 -12.3409 -10.4753  -7.9108  -2.8537  -0.1183   4.6244
     4.9970

          k = 0.3125-0.1083-0.0673 (  4460 PWs)   bands (ev):

   -28.6641 -13.5117 -11.7495 -10.2966  -8.4971  -1.6174   0.1543   2.6688
     3.0193

          k =-0.2500-0.2165-0.0673 (  4460 PWs)   bands (ev):

   -28.6641 -13.5117 -11.7495 -10.2966  -8.4971  -1.6174   0.1543   2.6688
     3.0193

          k = 0.1875-0.0361-0.0673 (  4490 PWs)   bands (ev):

   -28.8285 -13.8126 -10.9326 -10.0780  -9.0941  -0.2448   0.5094   1.3801
     1.7419

          k =-0.1250-0.1443-0.0673 (  4490 PWs)   bands (ev):

   -28.8285 -13.8126 -10.9326 -10.0780  -9.0941  -0.2448   0.5094   1.3801
     1.7419

          k = 0.0000-0.0722-0.0673 (  4520 PWs)   bands (ev):

   -28.9188 -13.9752 -10.2539  -9.9531  -9.5756   0.5719   0.7244   0.8182
     1.1892

          k = 0.3750 0.0000-0.0673 (  4450 PWs)   bands (ev):

   -28.6090 -13.4105 -11.8572 -10.5514  -8.2638  -1.8102  -0.3320   3.2149
     3.5639

          k =-0.3125 0.3969-0.0673 (  4428 PWs)   bands (ev):

   -28.4855 -13.1814 -12.1816 -10.9276  -7.7127  -2.6481  -0.9287   5.1536
     5.5387

          k = 0.5000 0.0722-0.0673 (  4428 PWs)   bands (ev):

   -28.4855 -13.1814 -12.1816 -10.9276  -7.7127  -2.6481  -0.9287   5.1536
     5.5387

          k =-0.4375 0.4691-0.0673 (  4432 PWs)   bands (ev):

   -28.4559 -13.1265 -12.2481 -11.0217  -7.5571  -2.8789  -1.0584   6.2794
     6.7463

          k = 0.6250 0.1443-0.0673 (  4432 PWs)   bands (ev):

   -28.4559 -13.1265 -12.2481 -11.0217  -7.5571  -2.8789  -1.0584   6.2794
     6.7463

          k = 0.4375-0.0361-0.0673 (  4450 PWs)   bands (ev):

   -28.5395 -13.2819 -12.0502 -10.7595  -7.9692  -2.2624  -0.6767   4.1101
     4.4665

          k =-0.2500-0.3608-0.0673 (  4450 PWs)   bands (ev):

   -28.5395 -13.2819 -12.0502 -10.7594  -7.9692  -2.2624  -0.6767   4.1101
     4.4665

          k = 0.3125 0.0361-0.0673 (  4452 PWs)   bands (ev):

   -28.6831 -13.5471 -11.6151 -10.3456  -8.5523  -1.3483   0.0361   2.4875
     2.8381

          k =-0.1250-0.2887-0.0673 (  4452 PWs)   bands (ev):

   -28.6831 -13.5471 -11.6151 -10.3456  -8.5523  -1.3483   0.0361   2.4875
     2.8381

          k = 0.0000-0.2165-0.0673 (  4480 PWs)   bands (ev):

   -28.8013 -13.7631 -11.0986 -10.0965  -8.9940  -0.5105   0.4886   1.5658
     1.9251

          k = 0.6250 0.0000-0.0673 (  4434 PWs)   bands (ev):

   -28.4299 -13.0802 -11.9020 -11.5770  -7.4007  -2.4157  -1.9641   7.1509
     7.8192

          k =-0.4375 0.6134-0.0673 (  4444 PWs)   bands (ev):

   -28.4495 -13.1159 -12.0839 -11.2649  -7.5144  -2.6082  -1.4846   6.1493
     6.6022

          k = 0.7500 0.0722-0.0673 (  4444 PWs)   bands (ev):

   -28.4495 -13.1159 -12.0839 -11.2649  -7.5144  -2.6081  -1.4846   6.1493
     6.6022

          k = 0.4375 0.1083-0.0673 (  4428 PWs)   bands (ev):

   -28.5323 -13.2674 -12.1822 -10.6221  -7.9518  -2.5365  -0.4002   4.2827
     4.6439

          k =-0.1250-0.4330-0.0673 (  4428 PWs)   bands (ev):

   -28.5323 -13.2674 -12.1821 -10.6221  -7.9518  -2.5365  -0.4002   4.2827
     4.6439

          k = 0.0000-0.3608-0.0673 (  4442 PWs)   bands (ev):

   -28.6289 -13.4460 -11.9330 -10.2915  -8.3752  -1.9730   0.1827   3.0307
     3.3814

          k = 0.8750 0.0000-0.0673 (  4420 PWs)   bands (ev):

   -28.4681 -13.1473 -12.4000 -10.7360  -7.6376  -3.1006  -0.5642   6.4067
     6.5836

          k = 0.0000-0.5052-0.0673 (  4396 PWs)   bands (ev):

   -28.5022 -13.2090 -12.4493 -10.4244  -7.8388  -3.0851  -0.0179   5.1253
     5.5206

     the Fermi energy is    -5.8895 ev

!    total energy              =     -59.98539257 Ry
     Harris-Foulkes estimate   =     -59.98539257 Ry
     estimated scf accuracy    <          2.2E-09 Ry

     total all-electron energy =      -226.596383 Ry

     The total energy is the sum of the following terms:

     one-electron contribution =    -276.29972198 Ry
     hartree contribution      =     139.71584337 Ry
     xc contribution           =     -11.73807813 Ry
     ewald contribution        =     104.06031051 Ry
     one-center paw contrib.   =     -15.72374634 Ry
     smearing contrib. (-TS)   =      -0.00000000 Ry

     convergence has been achieved in   4 iterations

     Forces acting on atoms (Ry/au):


     negative rho (up, down):  4.719E-04 0.000E+00
     atom    1 type  1   force =     0.00000000    0.00004621    0.00021155
     atom    2 type  2   force =     0.00000000   -0.00004621   -0.00021155

     Total force =     0.000306     Total SCF correction =     0.000086
     SCF correction compared to forces is large: reduce conv_thr to get better values

     bfgs converged in   4 scf cycles and   2 bfgs steps
     (criteria: energy <  1.0E-04, force <  1.0E-03)

     End of BFGS Geometry Optimization

     Final energy   =     -59.9853925694 Ry
Begin final coordinates

ATOMIC_POSITIONS (alat)
C        0.500000000   0.000005654   3.071928109
O        0.500001000   0.000994346   3.466648891
End final coordinates



     Writing output data file CO_bridge.save

     init_run     :      6.93s CPU     12.72s WALL (       1 calls)
     electrons    :    359.87s CPU    895.52s WALL (       4 calls)
     update_pot   :      4.38s CPU     13.25s WALL (       3 calls)
     forces       :      8.16s CPU     23.81s WALL (       4 calls)

     Called by init_run:
     wfcinit      :      4.41s CPU      8.74s WALL (       1 calls)
     potinit      :      0.79s CPU      1.19s WALL (       1 calls)

     Called by electrons:
     c_bands      :    298.83s CPU    728.08s WALL (      24 calls)
     sum_band     :     45.44s CPU    125.23s WALL (      24 calls)
     v_of_rho     :      6.11s CPU     15.94s WALL (      27 calls)
     newd         :      7.05s CPU     18.86s WALL (      27 calls)
     mix_rho      :      0.48s CPU      1.18s WALL (      24 calls)

     Called by c_bands:
     init_us_2    :      7.55s CPU     18.08s WALL (    2912 calls)
     cegterg      :    288.40s CPU    705.38s WALL (    1248 calls)

     Called by *egterg:
     h_psi        :    233.00s CPU    546.73s WALL (    5048 calls)
     s_psi        :      4.87s CPU     12.28s WALL (    5048 calls)
     g_psi        :      0.86s CPU      1.50s WALL (    3748 calls)
     cdiaghg      :     28.90s CPU    101.91s WALL (    4788 calls)

     Called by h_psi:
     add_vuspsi   :      4.53s CPU     10.65s WALL (    5048 calls)

     General routines
     calbec       :      9.15s CPU     27.22s WALL (    6660 calls)
     fft          :      2.70s CPU      7.03s WALL (     467 calls)
     ffts         :      0.16s CPU      0.30s WALL (      51 calls)
     fftw         :    203.94s CPU    487.73s WALL (   74970 calls)
     interpolate  :      0.58s CPU      1.40s WALL (      51 calls)
     davcio       :      0.03s CPU      0.08s WALL (      52 calls)

     Parallel routines
     fft_scatter  :     23.96s CPU     57.51s WALL (   75488 calls)

     PAW routines
     PAW_pot      :      4.35s CPU     11.91s WALL (      30 calls)
     PAW_symme    :      0.00s CPU      0.00s WALL (      54 calls)

     PWSCF        :  6m22.42s CPU    15m53.43s WALL


   This run was terminated on:   4:55:16  18Jun2018            

=------------------------------------------------------------------------------=
   JOB DONE.
=------------------------------------------------------------------------------=
