
     Program PWSCF v.5.1 starts on 18Jun2018 at  2:18:39 

     This program is part of the open-source Quantum ESPRESSO suite
     for quantum simulation of materials; please cite
         "P. Giannozzi et al., J. Phys.:Condens. Matter 21 395502 (2009);
          URL http://www.quantum-espresso.org", 
     in publications or presentations arising from this work. More details at
     http://www.quantum-espresso.org/quote

     Parallel version (MPI), running on     1 processors
     Waiting for input...
     Reading input from standard input
Warning: card &CELL ignored
Warning: card / ignored

     Current dimensions of program PWSCF are:
     Max number of different atomic species (ntypx) = 10
     Max number of k-points (npk) =  40000
     Max angular momentum in pseudopotentials (lmaxx) =  3
               file C.pbe-n-kjpaw_psl.1.0.0.UPF: wavefunction(s)  2S 2P renormalized
               file O.pbe-n-kjpaw_psl.0.1.U: wavefunction(s)  2P renormalized

     Subspace diagonalization in iterative solution of the eigenvalue problem:
     a serial algorithm will be used


     G-vector sticks info
     --------------------
     sticks:   dense  smooth     PW     G-vecs:    dense   smooth      PW
     Sum         649     313    109               100611    35335    6935



     bravais-lattice index     =            4
     lattice parameter (alat)  =       5.4490  a.u.
     unit-cell volume          =    1040.6255 (a.u.)^3
     number of atoms/cell      =            6
     number of atomic types    =            3
     number of electrons       =        86.00
     number of Kohn-Sham states=           52
     kinetic-energy cutoff     =      40.0000  Ry
     charge density cutoff     =     320.0000  Ry
     convergence threshold     =      1.0E-06
     mixing beta               =       0.7000
     number of iterations used =            8  plain     mixing
     Exchange-correlation      =  SLA  PW   PBX  PBC ( 1  4  3  4 0)
     nstep                     =           50


     celldm(1)=   5.449000  celldm(2)=   0.000000  celldm(3)=   7.427000
     celldm(4)=   0.000000  celldm(5)=   0.000000  celldm(6)=   0.000000

     crystal axes: (cart. coord. in units of alat)
               a(1) = (   1.000000   0.000000   0.000000 )  
               a(2) = (  -0.500000   0.866025   0.000000 )  
               a(3) = (   0.000000   0.000000   7.427000 )  

     reciprocal axes: (cart. coord. in units 2 pi/alat)
               b(1) = (  1.000000  0.577350 -0.000000 )  
               b(2) = (  0.000000  1.154701  0.000000 )  
               b(3) = (  0.000000 -0.000000  0.134644 )  


     PseudoPot. # 1 for Au read from file:
     /home/oropebuen/Documents/Job/Absortion/SSSP_efficiency_pseudos/Au_ONCV_PBE-1.0.upf
     MD5 check sum: 1009843a674e36925f098327e430af60
     Pseudo is Norm-conserving, Zval = 19.0
     Generated using ONCVPSP code by D. R. Hamann
     Using radial grid of  602 points,  8 beta functions with: 
                l(1) =   0
                l(2) =   0
                l(3) =   1
                l(4) =   1
                l(5) =   2
                l(6) =   2
                l(7) =   3
                l(8) =   3

     PseudoPot. # 2 for  C read from file:
     /home/oropebuen/Documents/Job/Absortion/SSSP_efficiency_pseudos/C.pbe-n-kjpaw_psl.1.0.0.UPF
     MD5 check sum: 8e281b34a927efac7e739263a90d7aed
     Pseudo is Projector augmented-wave + core cor, Zval =  4.0
     Generated using "atomic" code by A. Dal Corso  v.5.1
     Shape of augmentation charge: PSQ
     Using radial grid of 1073 points,  4 beta functions with: 
                l(1) =   0
                l(2) =   0
                l(3) =   1
                l(4) =   1
     Q(r) pseudized with 0 coefficients 


     PseudoPot. # 3 for  O read from file:
     /home/oropebuen/Documents/Job/Absortion/SSSP_efficiency_pseudos/O.pbe-n-kjpaw_psl.0.1.U
     MD5 check sum: 3f94a2996a3169367d6eb21d9b593f20
     Pseudo is Projector augmented-wave + core cor, Zval =  6.0
     Generated using "atomic" code by A. Dal Corso  v.5.0.99 svn rev. 10869
     Shape of augmentation charge: BESSEL
     Using radial grid of 1095 points,  4 beta functions with: 
                l(1) =   0
                l(2) =   0
                l(3) =   1
                l(4) =   1
     Q(r) pseudized with 0 coefficients 


     atomic species   valence    mass     pseudopotential
        Au            19.00   196.96600     Au( 1.00)
        C              4.00    12.01070      C( 1.00)
        O              6.00    15.99940      O( 1.00)

      2 Sym. Ops. (no inversion) found



   Cartesian axes

     site n.     atom                  positions (alat units)
         1           Au  tau(   1) = (   0.0000000   0.0000000   0.0000000  )
         2           Au  tau(   2) = (   0.5000000   0.2886750   0.8164970  )
         3           Au  tau(   3) = (   0.0000000   0.5773500   1.6329930  )
         4           Au  tau(   4) = (   0.0000000   0.0000000   2.4494900  )
         5           C   tau(   5) = (   0.0000000   0.0000000   3.0737340  )
         6           O   tau(   6) = (   0.0000010   0.0010000   3.4648430  )

     number of k points=    52  gaussian smearing, width (Ry)=  0.0100
                       cart. coord. in units 2pi/alat
        k(    1) = (   0.0625000   0.1082532  -0.0673219), wk =   0.0416667
        k(    2) = (   0.0625000   0.2525907  -0.0673219), wk =   0.0416667
        k(    3) = (   0.0625000   0.3969283  -0.0673219), wk =   0.0416667
        k(    4) = (   0.0625000   0.5412659  -0.0673219), wk =   0.0416667
        k(    5) = (   0.0625000  -0.4690971  -0.0673219), wk =   0.0416667
        k(    6) = (   0.0625000  -0.3247595  -0.0673219), wk =   0.0416667
        k(    7) = (   0.0625000  -0.1804220  -0.0673219), wk =   0.0416667
        k(    8) = (   0.0625000  -0.0360844  -0.0673219), wk =   0.0416667
        k(    9) = (   0.1875000   0.3247595  -0.0673219), wk =   0.0416667
        k(   10) = (   0.1875000   0.4690971  -0.0673219), wk =   0.0416667
        k(   11) = (   0.1875000   0.6134347  -0.0673219), wk =   0.0416667
        k(   12) = (   0.1875000  -0.3969283  -0.0673219), wk =   0.0416667
        k(   13) = (   0.1875000  -0.2525907  -0.0673219), wk =   0.0416667
        k(   14) = (   0.1875000  -0.1082532  -0.0673219), wk =   0.0416667
        k(   15) = (   0.3125000   0.5412659  -0.0673219), wk =   0.0416667
        k(   16) = (   0.3125000   0.6856034  -0.0673219), wk =   0.0416667
        k(   17) = (   0.3125000  -0.3247595  -0.0673219), wk =   0.0416667
        k(   18) = (   0.3125000  -0.1804220  -0.0673219), wk =   0.0416667
        k(   19) = (   0.4375000   0.7577722  -0.0673219), wk =   0.0416667
        k(   20) = (   0.4375000  -0.2525907  -0.0673219), wk =   0.0416667
        k(   21) = (   0.1250000   0.0000000  -0.0673219), wk =   0.0208333
        k(   22) = (  -0.1875000   0.1804220  -0.0673219), wk =   0.0416667
        k(   23) = (   0.2500000   0.0721688  -0.0673219), wk =   0.0416667
        k(   24) = (  -0.3125000   0.2525907  -0.0673219), wk =   0.0416667
        k(   25) = (   0.3750000   0.1443376  -0.0673219), wk =   0.0416667
        k(   26) = (  -0.4375000   0.3247595  -0.0673219), wk =   0.0416667
        k(   27) = (   0.5000000   0.2165064  -0.0673219), wk =   0.0416667
        k(   28) = (   0.4375000  -0.1804220  -0.0673219), wk =   0.0416667
        k(   29) = (  -0.3750000  -0.2886751  -0.0673219), wk =   0.0416667
        k(   30) = (   0.3125000  -0.1082532  -0.0673219), wk =   0.0416667
        k(   31) = (  -0.2500000  -0.2165064  -0.0673219), wk =   0.0416667
        k(   32) = (   0.1875000  -0.0360844  -0.0673219), wk =   0.0416667
        k(   33) = (  -0.1250000  -0.1443376  -0.0673219), wk =   0.0416667
        k(   34) = (   0.0000000  -0.0721688  -0.0673219), wk =   0.0208333
        k(   35) = (   0.3750000   0.0000000  -0.0673219), wk =   0.0208333
        k(   36) = (  -0.3125000   0.3969283  -0.0673219), wk =   0.0416667
        k(   37) = (   0.5000000   0.0721688  -0.0673219), wk =   0.0416667
        k(   38) = (  -0.4375000   0.4690971  -0.0673219), wk =   0.0416667
        k(   39) = (   0.6250000   0.1443376  -0.0673219), wk =   0.0416667
        k(   40) = (   0.4375000  -0.0360844  -0.0673219), wk =   0.0416667
        k(   41) = (  -0.2500000  -0.3608439  -0.0673219), wk =   0.0416667
        k(   42) = (   0.3125000   0.0360844  -0.0673219), wk =   0.0416667
        k(   43) = (  -0.1250000  -0.2886751  -0.0673219), wk =   0.0416667
        k(   44) = (   0.0000000  -0.2165064  -0.0673219), wk =   0.0208333
        k(   45) = (   0.6250000   0.0000000  -0.0673219), wk =   0.0208333
        k(   46) = (  -0.4375000   0.6134347  -0.0673219), wk =   0.0416667
        k(   47) = (   0.7500000   0.0721688  -0.0673219), wk =   0.0416667
        k(   48) = (   0.4375000   0.1082532  -0.0673219), wk =   0.0416667
        k(   49) = (  -0.1250000  -0.4330127  -0.0673219), wk =   0.0416667
        k(   50) = (   0.0000000  -0.3608439  -0.0673219), wk =   0.0208333
        k(   51) = (   0.8750000   0.0000000  -0.0673219), wk =   0.0208333
        k(   52) = (   0.0000000  -0.5051815  -0.0673219), wk =   0.0208333

     Dense  grid:   100611 G-vectors     FFT dimensions: (  32,  32, 240)

     Smooth grid:    35335 G-vectors     FFT dimensions: (  24,  24, 180)

     Largest allocated arrays     est. size (Mb)     dimensions
        Kohn-Sham Wavefunctions         3.59 Mb     (    4520,   52)
        NL pseudopotentials             9.93 Mb     (    4520,  144)
        Each V/rho on FFT grid          3.75 Mb     (  245760)
        Each G-vector array             0.77 Mb     (  100611)
        G-vector shells                 0.04 Mb     (    4911)
     Largest temporary arrays     est. size (Mb)     dimensions
        Auxiliary wavefunctions        14.35 Mb     (    4520,  208)
        Each subspace H/S matrix        0.66 Mb     (     208,  208)
        Each <psi_i|beta_j> matrix      0.11 Mb     (     144,   52)
        Arrays for rho mixing          30.00 Mb     (  245760,    8)

     Check: negative/imaginary core charge=   -0.000003    0.000000

     Initial potential from superposition of free atoms
     Check: negative starting charge=   -0.000174

     starting charge   85.91012, renormalised to   86.00000

     negative rho (up, down):  1.742E-04 0.000E+00
     Starting wfc are    8 randomized atomic wfcs +   44 random wfc
     Checking if some PAW data can be deallocated... 

     total cpu time spent up to now is       30.5 secs

     per-process dynamical memory:   267.3 Mb

     Self-consistent Calculation

     iteration #  1     ecut=    40.00 Ry     beta=0.70
     Davidson diagonalization with overlap
     ethr =  1.00E-02,  avg # of iterations =  7.1

     Threshold (ethr) on eigenvalues was too large:
     Diagonalizing with lowered threshold

     Davidson diagonalization with overlap
     ethr =  6.01E-04,  avg # of iterations =  1.0

     negative rho (up, down):  1.492E-04 0.000E+00

     total cpu time spent up to now is      277.7 secs

     total energy              =   -1158.48970841 Ry
     Harris-Foulkes estimate   =   -1158.90709877 Ry
     estimated scf accuracy    <       0.51752615 Ry

     iteration #  2     ecut=    40.00 Ry     beta=0.70
     Davidson diagonalization with overlap
     ethr =  6.02E-04,  avg # of iterations =  5.2

     negative rho (up, down):  3.175E-04 0.000E+00

     total cpu time spent up to now is      352.4 secs

     total energy              =   -1152.01664260 Ry
     Harris-Foulkes estimate   =   -1164.22655495 Ry
     estimated scf accuracy    <     342.79780755 Ry

     iteration #  3     ecut=    40.00 Ry     beta=0.70
     Davidson diagonalization with overlap
     ethr =  6.02E-04,  avg # of iterations =  4.9

     negative rho (up, down):  1.973E-04 0.000E+00

     total cpu time spent up to now is      418.2 secs

     total energy              =   -1158.51962957 Ry
     Harris-Foulkes estimate   =   -1159.11826856 Ry
     estimated scf accuracy    <       2.03897859 Ry

     iteration #  4     ecut=    40.00 Ry     beta=0.70
     Davidson diagonalization with overlap
     ethr =  6.02E-04,  avg # of iterations =  4.1

     negative rho (up, down):  1.326E-04 0.000E+00

     total cpu time spent up to now is      469.3 secs

     total energy              =   -1158.79740133 Ry
     Harris-Foulkes estimate   =   -1158.83752930 Ry
     estimated scf accuracy    <       0.31736129 Ry

     iteration #  5     ecut=    40.00 Ry     beta=0.70
     Davidson diagonalization with overlap
     ethr =  3.69E-04,  avg # of iterations =  3.3

     negative rho (up, down):  1.321E-04 0.000E+00

     total cpu time spent up to now is      516.1 secs

     total energy              =   -1158.79054369 Ry
     Harris-Foulkes estimate   =   -1158.85348891 Ry
     estimated scf accuracy    <       0.39597700 Ry

     iteration #  6     ecut=    40.00 Ry     beta=0.70
     Davidson diagonalization with overlap
     ethr =  3.69E-04,  avg # of iterations =  3.0

     negative rho (up, down):  1.356E-04 0.000E+00

     total cpu time spent up to now is      562.5 secs

     total energy              =   -1158.81685498 Ry
     Harris-Foulkes estimate   =   -1158.82457531 Ry
     estimated scf accuracy    <       0.05692574 Ry

     iteration #  7     ecut=    40.00 Ry     beta=0.70
     Davidson diagonalization with overlap
     ethr =  6.62E-05,  avg # of iterations =  2.1

     negative rho (up, down):  1.382E-04 0.000E+00

     total cpu time spent up to now is      605.2 secs

     total energy              =   -1158.81886667 Ry
     Harris-Foulkes estimate   =   -1158.82129593 Ry
     estimated scf accuracy    <       0.05780229 Ry

     iteration #  8     ecut=    40.00 Ry     beta=0.70
     Davidson diagonalization with overlap
     ethr =  6.62E-05,  avg # of iterations =  1.0

     negative rho (up, down):  1.417E-04 0.000E+00

     total cpu time spent up to now is      646.1 secs

     total energy              =   -1158.81872453 Ry
     Harris-Foulkes estimate   =   -1158.82001508 Ry
     estimated scf accuracy    <       0.02652637 Ry

     iteration #  9     ecut=    40.00 Ry     beta=0.70
     Davidson diagonalization with overlap
     ethr =  3.08E-05,  avg # of iterations =  1.3

     negative rho (up, down):  1.426E-04 0.000E+00

     total cpu time spent up to now is      688.1 secs

     total energy              =   -1158.81877071 Ry
     Harris-Foulkes estimate   =   -1158.81910430 Ry
     estimated scf accuracy    <       0.01010602 Ry

     iteration # 10     ecut=    40.00 Ry     beta=0.70
     Davidson diagonalization with overlap
     ethr =  1.18E-05,  avg # of iterations =  1.9

     negative rho (up, down):  1.434E-04 0.000E+00

     total cpu time spent up to now is      730.7 secs

     total energy              =   -1158.81865548 Ry
     Harris-Foulkes estimate   =   -1158.81882733 Ry
     estimated scf accuracy    <       0.00523290 Ry

     iteration # 11     ecut=    40.00 Ry     beta=0.70
     Davidson diagonalization with overlap
     ethr =  6.08E-06,  avg # of iterations =  1.6

     negative rho (up, down):  1.447E-04 0.000E+00

     total cpu time spent up to now is      786.0 secs

     total energy              =   -1158.81837191 Ry
     Harris-Foulkes estimate   =   -1158.81867944 Ry
     estimated scf accuracy    <       0.00289104 Ry

     iteration # 12     ecut=    40.00 Ry     beta=0.70
     Davidson diagonalization with overlap
     ethr =  3.36E-06,  avg # of iterations =  3.0

     negative rho (up, down):  1.449E-04 0.000E+00

     total cpu time spent up to now is      865.4 secs

     total energy              =   -1158.81851619 Ry
     Harris-Foulkes estimate   =   -1158.81851777 Ry
     estimated scf accuracy    <       0.00000343 Ry

     iteration # 13     ecut=    40.00 Ry     beta=0.70
     Davidson diagonalization with overlap
     ethr =  3.98E-09,  avg # of iterations =  2.1

     negative rho (up, down):  1.449E-04 0.000E+00

     total cpu time spent up to now is      936.1 secs

     End of self-consistent calculation

          k = 0.0625 0.1083-0.0673 (  4518 PWs)   bands (ev):

   -99.3117 -98.0222 -97.9211 -97.4944 -51.0237 -50.4127 -50.3993 -49.3747
   -49.2543 -49.2389 -49.2064 -49.1662 -49.1529 -48.7598 -48.7462 -48.7103
   -17.7297  -4.6764  -1.5932  -1.1353  -0.5047   0.1886   0.7402   0.8868
     0.9328   2.1286   2.5015   2.5870   2.8123   2.9437   3.0731   3.1246
     3.4252   3.5517   3.6166   3.6886   3.8617   3.9501   4.5508   4.6721
     4.9648   5.3018   5.6500   5.9557   8.0985  11.0386  11.5039  11.7520
    12.8150  13.0966  14.9041  15.2880

          k = 0.0625 0.2526-0.0673 (  4466 PWs)   bands (ev):

   -99.3092 -98.0196 -97.9186 -97.4919 -51.0174 -50.4631 -50.4135 -49.3655
   -49.3068 -49.2542 -49.2180 -49.2011 -49.1672 -48.8105 -48.7607 -48.7054
   -17.5918  -4.2963  -1.3276  -0.4784  -0.1817   0.4044   0.6757   1.1702
     1.6691   1.8467   2.1395   2.4422   2.6493   2.8390   2.9634   3.2698
     3.3637   3.4251   3.7689   4.0125   4.1281   4.3290   4.5475   4.7989
     5.0498   5.3550   5.6943   6.9773   9.5020  10.1215  11.2096  12.4502
    13.6800  14.0756  15.7243  16.2459

          k = 0.0625 0.3969-0.0673 (  4438 PWs)   bands (ev):

   -99.3064 -98.0167 -97.9157 -97.4889 -51.0100 -50.5221 -50.4303 -49.3690
   -49.3566 -49.2749 -49.2683 -49.2004 -49.1840 -48.8696 -48.7777 -48.6997
   -17.4229  -3.7867  -1.4469  -0.8902   0.3902   0.4577   0.7558   1.0991
     1.4855   1.7573   1.9880   2.5876   2.7225   3.0010   3.2814   3.3928
     3.7120   4.0231   4.3426   4.5565   4.7535   4.9889   5.2371   5.5108
     5.6598   5.8526   6.1577   8.0817   9.2130  10.7789  10.8873  13.4620
    14.3077  14.9853  15.2617  15.9253

          k = 0.0625 0.5413-0.0673 (  4394 PWs)   bands (ev):

   -99.3047 -98.0150 -97.9140 -97.4872 -51.0058 -50.5553 -50.4398 -49.4020
   -49.3598 -49.2959 -49.2812 -49.1999 -49.1935 -48.9027 -48.7873 -48.6965
   -17.3239  -3.4108  -1.8730  -0.8967   0.2692   0.4016   0.6057   1.0152
     1.2630   1.5057   1.8104   2.4915   2.6183   3.0752   3.4574   3.8681
     4.3324   4.5311   4.7683   5.3597   5.5186   5.5957   5.8568   6.1024
     6.3351   6.9008   7.8987   8.5670   9.7159  10.4562  10.6945  11.4662
    12.2387  13.4436  14.6754  16.3748

          k = 0.0625-0.4691-0.0673 (  4416 PWs)   bands (ev):

   -99.3053 -98.0156 -97.9146 -97.4878 -51.0073 -50.5437 -50.4364 -49.3902
   -49.3579 -49.2889 -49.2774 -49.2000 -49.1901 -48.8911 -48.7840 -48.6977
   -17.3590  -3.5573  -1.6973  -0.9091   0.3198   0.4366   0.6802   1.0424
     1.3442   1.5945   1.8754   2.5285   2.6744   3.1099   3.4041   3.7291
     4.0242   4.3714   4.6047   5.0290   5.2853   5.4485   5.5733   5.8086
     5.9239   6.4051   6.9822   8.2869   9.4467  10.7493  11.4082  11.8918
    12.9734  14.4933  15.3192  16.1681

          k = 0.0625-0.3248-0.0673 (  4460 PWs)   bands (ev):

   -99.3077 -98.0181 -97.9171 -97.4903 -51.0135 -50.4938 -50.4222 -49.3612
   -49.3380 -49.2638 -49.2460 -49.2009 -49.1759 -48.8413 -48.7695 -48.7024
   -17.5050  -4.0448  -1.3062  -0.7115   0.1927   0.5411   0.7048   1.2039
     1.6504   1.9126   2.1150   2.3709   2.7253   2.8089   2.9951   3.3454
     3.5510   3.7037   3.8863   4.1279   4.4754   4.5419   4.8709   5.1024
     5.3974   5.5451   5.7528   7.5319   9.5876  10.1772  11.0366  13.0388
    14.3620  14.8196  16.1627  16.3053

          k = 0.0625-0.1804-0.0673 (  4490 PWs)   bands (ev):

   -99.3106 -98.0211 -97.9200 -97.4933 -51.0210 -50.4346 -50.4054 -49.3706
   -49.2774 -49.2455 -49.2054 -49.1873 -49.1591 -48.7818 -48.7525 -48.7082
   -17.6705  -4.5146  -1.4267  -0.8454  -0.1612   0.1518   0.7929   0.8608
     1.2991   1.9671   2.3231   2.6319   2.8112   2.8722   2.9418   3.0179
     3.4653   3.5367   3.6886   3.7349   3.8840   4.1830   4.4775   4.6790
     4.8763   5.2981   5.6654   6.4407   8.7936  10.6210  11.3742  12.0264
    13.1663  13.4884  15.2504  15.6851

          k = 0.0625-0.0361-0.0673 (  4520 PWs)   bands (ev):

   -99.3122 -98.0227 -97.9217 -97.4949 -51.0252 -50.4007 -50.3960 -49.3770
   -49.2412 -49.2354 -49.2078 -49.1543 -49.1496 -48.7477 -48.7429 -48.7115
   -17.7614  -4.7629  -1.7365  -1.2424  -0.7092   0.0606   0.7227   0.8622
     0.9359   2.2343   2.3673   2.7294   2.9142   2.9171   3.1280   3.2115
     3.2761   3.5660   3.6132   3.6622   3.7820   4.1514   4.6042   4.6388
     5.0728   5.2851   5.6384   5.7301   7.6073  11.2758  11.5727  11.6265
    12.6243  12.9058  14.7178  15.0885

          k = 0.1875 0.3248-0.0673 (  4450 PWs)   bands (ev):

   -99.3068 -98.0171 -97.9161 -97.4894 -51.0111 -50.5040 -50.4370 -49.3592
   -49.3470 -49.2815 -49.2534 -49.2000 -49.1909 -48.8515 -48.7845 -48.7005
   -17.4495  -3.8763  -1.3068  -0.7614   0.2454   0.6138   1.1888   1.5049
     1.7067   1.8947   2.2065   2.2679   2.4828   2.6468   2.8448   3.0175
     3.3608   3.8105   3.8280   4.2466   4.4738   4.8176   5.0315   5.5119
     5.6787   5.9106   6.2981   8.0647   9.4791  10.5960  10.6828  13.5785
    14.8802  15.4030  16.0400  16.4158

          k = 0.1875 0.4691-0.0673 (  4428 PWs)   bands (ev):

   -99.3047 -98.0150 -97.9140 -97.4872 -51.0058 -50.5344 -50.4610 -49.3805
   -49.3535 -49.3059 -49.2795 -49.2147 -49.1985 -48.8819 -48.8086 -48.6965
   -17.3251  -3.4444  -1.5365  -0.8638  -0.1728   0.8756   1.0870   1.5133
     1.7287   1.8898   2.2327   2.3672   2.5374   2.7567   3.1382   3.3886
     3.5972   3.9029   4.2912   4.4365   4.8657   5.1804   5.5867   5.9655
     6.1237   7.3670   8.0605   8.9450   9.9737  10.2797  11.9774  12.4280
    13.2375  14.3967  15.3408  15.8793

          k = 0.1875 0.6134-0.0673 (  4432 PWs)   bands (ev):

   -99.3043 -98.0145 -97.9135 -97.4868 -51.0045 -50.5412 -50.4670 -49.3874
   -49.3537 -49.3112 -49.2853 -49.2204 -49.1983 -48.8887 -48.8147 -48.6955
   -17.2954  -3.3209  -1.6323  -0.8645  -0.2705   0.8665   0.9988   1.5124
     1.6992   1.8083   2.1635   2.3599   2.5103   2.9168   3.3195   3.4680
     3.7705   3.8838   4.4881   4.6558   5.1031   5.3315   5.5879   5.8760
     6.4540   7.6871   8.8644   9.6821   9.9871  10.5333  11.2251  11.8375
    12.8607  13.6331  14.6384  16.0456

          k = 0.1875-0.3969-0.0673 (  4450 PWs)   bands (ev):

   -99.3056 -98.0159 -97.9150 -97.4882 -51.0081 -50.5216 -50.4503 -49.3680
   -49.3537 -49.2956 -49.2684 -49.2046 -49.1987 -48.8691 -48.7978 -48.6982
   -17.3795  -3.6456  -1.4026  -0.8453   0.0103   0.8450   1.2208   1.4866
     1.7913   2.0096   2.1138   2.4113   2.4352   2.7106   2.8801   3.1307
     3.6267   3.7057   3.9810   4.3555   4.5946   5.1097   5.3580   5.7349
     5.9031   6.5960   7.1917   8.6846   9.4156  10.2762  11.3842  13.9056
    14.5885  14.9605  15.6085  15.9681

          k = 0.1875-0.2526-0.0673 (  4452 PWs)   bands (ev):

   -99.3081 -98.0184 -97.9174 -97.4907 -51.0144 -50.4836 -50.4239 -49.3618
   -49.3275 -49.2664 -49.2359 -49.2008 -49.1778 -48.8311 -48.7713 -48.7031
   -17.5241  -4.1018  -1.2913  -0.5919   0.1651   0.4836   0.8195   1.4147
     1.7424   1.8854   2.0672   2.3841   2.4586   2.7137   2.8427   3.1883
     3.3527   3.7172   3.7847   4.0442   4.3845   4.4790   4.7919   5.1030
     5.4370   5.5546   5.7033   7.4560   9.7613  10.0908  10.9357  12.9244
    14.1975  14.6578  16.1631  16.7126

          k = 0.1875-0.1083-0.0673 (  4480 PWs)   bands (ev):

   -99.3101 -98.0206 -97.9195 -97.4928 -51.0197 -50.4455 -50.4074 -49.3688
   -49.2888 -49.2473 -49.2068 -49.1964 -49.1610 -48.7928 -48.7545 -48.7072
   -17.6430  -4.4390  -1.3828  -0.6960  -0.1281   0.1533   0.7754   0.9528
     1.4326   1.9334   2.2678   2.5680   2.7930   2.8491   3.0086   3.0394
     3.4292   3.5174   3.7462   3.8564   3.8784   4.2600   4.4631   4.6364
     5.0721   5.1322   5.7447   6.6206   9.0550  10.4165  11.3542  12.1579
    13.3364  13.6839  15.4103  15.8749

          k = 0.3125 0.5413-0.0673 (  4434 PWs)   bands (ev):

   -99.3038 -98.0140 -97.9131 -97.4863 -51.0034 -50.5198 -50.5000 -49.3656
   -49.3488 -49.3450 -49.2703 -49.2506 -49.1975 -48.8675 -48.8477 -48.6946
   -17.2692  -3.2302  -1.2599  -0.9040  -0.8227   1.1829   1.3326   1.9417
     1.9698   2.0959   2.2051   2.3899   2.5475   2.8066   2.9048   3.2952
     3.8173   3.8399   4.0050   4.3644   4.7017   5.3182   5.5358   5.6932
     6.4106   8.3725   8.9526   9.9786  10.9885  11.1238  11.2771  12.6251
    12.9678  13.7100  14.3225  15.2066

          k = 0.3125 0.6856-0.0673 (  4444 PWs)   bands (ev):

   -99.3041 -98.0144 -97.9134 -97.4866 -51.0042 -50.5302 -50.4810 -49.3761
   -49.3508 -49.3260 -49.2773 -49.2339 -49.1979 -48.8778 -48.8288 -48.6953
   -17.2889  -3.3069  -1.4486  -0.8396  -0.5516   1.0359   1.2947   1.7687
     1.8432   2.0930   2.1923   2.3557   2.5843   2.7045   3.0097   3.3127
     3.7260   3.8311   4.1410   4.3513   4.7749   5.2299   5.5738   5.8816
     6.3775   7.9699   8.9127   9.4506   9.9534  11.2490  11.6886  12.3832
    13.2966  13.5465  14.6634  15.3599

          k = 0.3125-0.3248-0.0673 (  4428 PWs)   bands (ev):

   -99.3055 -98.0158 -97.9148 -97.4880 -51.0078 -50.5315 -50.4432 -49.3778
   -49.3556 -49.2886 -49.2759 -49.1999 -49.1967 -48.8789 -48.7908 -48.6980
   -17.3722  -3.6146  -1.5255  -0.8876   0.1690   0.6502   0.9042   1.2510
     1.5966   1.7427   2.1168   2.4282   2.6350   2.9070   3.2637   3.3478
     3.6524   3.9981   4.4409   4.5033   4.8752   5.2638   5.3183   5.7548
     5.8831   6.5224   7.1013   8.5160   9.3929  10.5065  11.3917  12.9113
    13.9188  14.8004  15.6704  15.9537

          k = 0.3125-0.1804-0.0673 (  4442 PWs)   bands (ev):

   -99.3071 -98.0175 -97.9165 -97.4897 -51.0120 -50.5084 -50.4234 -49.3613
   -49.3518 -49.2641 -49.2600 -49.2009 -49.1770 -48.8559 -48.7707 -48.7013
   -17.4695  -3.9360  -1.3566  -0.8358   0.2681   0.5589   0.6567   1.0914
     1.5130   1.8003   2.0249   2.6580   2.7445   2.9758   3.1828   3.4017
     3.6776   3.9427   3.9572   4.4367   4.5941   4.9036   4.9521   5.1558
     5.4480   5.6243   5.7755   7.7237   9.3629  10.4005  11.0547  13.2715
    14.6721  15.0685  15.2601  16.0561

          k = 0.4375 0.7578-0.0673 (  4420 PWs)   bands (ev):

   -99.3045 -98.0147 -97.9138 -97.4870 -51.0051 -50.5512 -50.4513 -49.3977
   -49.3574 -49.2964 -49.2902 -49.2050 -49.1991 -48.8985 -48.7989 -48.6960
   -17.3077  -3.3543  -1.8018  -0.8816   0.0430   0.6103   0.7306   1.2239
     1.4501   1.5918   2.0174   2.3303   2.5897   3.1936   3.2188   3.8075
     4.0290   4.1655   4.7164   5.1490   5.3971   5.4127   5.7379   5.9161
     6.5337   7.2711   8.6589   9.2481   9.9100  10.3134  10.5994  11.6637
    12.2582  13.7483  14.2692  16.6263

          k = 0.4375-0.2526-0.0673 (  4396 PWs)   bands (ev):

   -99.3050 -98.0153 -97.9143 -97.4876 -51.0065 -50.5526 -50.4347 -49.3992
   -49.3598 -49.2942 -49.2759 -49.2003 -49.1884 -48.8999 -48.7822 -48.6971
   -17.3419  -3.4839  -1.8310  -0.9084   0.2972   0.4120   0.5828   0.9488
     1.2303   1.4999   1.7685   2.6031   2.6104   3.0433   3.6002   3.7691
     4.4678   4.5779   4.7793   5.1152   5.5601   5.7313   5.8866   5.9047
     6.2347   6.4281   7.1964   8.1668   9.6124  10.8350  10.8765  11.6012
    12.3114  13.7919  15.2216  16.0918

          k = 0.1250 0.0000-0.0673 (  4518 PWs)   bands (ev):

   -99.3117 -98.0222 -97.9211 -97.4944 -51.0237 -50.4127 -50.3992 -49.3747
   -49.2543 -49.2389 -49.2064 -49.1662 -49.1529 -48.7598 -48.7462 -48.7103
   -17.7297  -4.6764  -1.5932  -1.1353  -0.5047   0.1886   0.7401   0.8869
     0.9328   2.1287   2.5015   2.5869   2.8122   2.9438   3.0730   3.1246
     3.4252   3.5517   3.6162   3.6887   3.8621   3.9501   4.5507   4.6721
     4.9648   5.3018   5.6499   5.9556   8.0984  11.0389  11.5048  11.7510
    12.8149  13.0966  14.9040  15.2880

          k =-0.1875 0.1804-0.0673 (  4466 PWs)   bands (ev):

   -99.3092 -98.0196 -97.9186 -97.4919 -51.0174 -50.4631 -50.4135 -49.3655
   -49.3068 -49.2542 -49.2180 -49.2011 -49.1672 -48.8105 -48.7607 -48.7054
   -17.5918  -4.2963  -1.3276  -0.4784  -0.1817   0.4044   0.6757   1.1702
     1.6691   1.8467   2.1392   2.4424   2.6492   2.8391   2.9634   3.2698
     3.3637   3.4252   3.7689   4.0124   4.1281   4.3290   4.5475   4.7989
     5.0498   5.3551   5.6943   6.9772   9.5015  10.1227  11.2093  12.4500
    13.6799  14.0755  15.7242  16.2460

          k = 0.2500 0.0722-0.0673 (  4466 PWs)   bands (ev):

   -99.3092 -98.0196 -97.9186 -97.4919 -51.0174 -50.4631 -50.4135 -49.3655
   -49.3068 -49.2542 -49.2180 -49.2011 -49.1672 -48.8105 -48.7607 -48.7054
   -17.5918  -4.2963  -1.3276  -0.4784  -0.1817   0.4044   0.6757   1.1702
     1.6691   1.8467   2.1392   2.4423   2.6491   2.8389   2.9638   3.2698
     3.3637   3.4252   3.7688   4.0127   4.1281   4.3290   4.5474   4.7989
     5.0498   5.3550   5.6943   6.9770   9.5015  10.1225  11.2102  12.4494
    13.6799  14.0754  15.7241  16.2461

          k =-0.3125 0.2526-0.0673 (  4438 PWs)   bands (ev):

   -99.3064 -98.0167 -97.9157 -97.4889 -51.0100 -50.5221 -50.4303 -49.3690
   -49.3566 -49.2749 -49.2683 -49.2004 -49.1840 -48.8696 -48.7777 -48.6997
   -17.4230  -3.7867  -1.4469  -0.8902   0.3902   0.4578   0.7559   1.0990
     1.4852   1.7573   1.9880   2.5879   2.7225   3.0008   3.2815   3.3929
     3.7119   4.0234   4.3423   4.5565   4.7534   4.9889   5.2370   5.5108
     5.6598   5.8526   6.1576   8.0812   9.2138  10.7792  10.8870  13.4613
    14.3081  14.9848  15.2619  15.9258

          k = 0.3750 0.1443-0.0673 (  4438 PWs)   bands (ev):

   -99.3064 -98.0167 -97.9157 -97.4889 -51.0100 -50.5221 -50.4303 -49.3690
   -49.3566 -49.2749 -49.2683 -49.2004 -49.1840 -48.8696 -48.7777 -48.6997
   -17.4230  -3.7867  -1.4469  -0.8902   0.3903   0.4577   0.7559   1.0989
     1.4852   1.7573   1.9880   2.5875   2.7229   3.0009   3.2815   3.3928
     3.7120   4.0231   4.3424   4.5564   4.7535   4.9890   5.2371   5.5108
     5.6597   5.8526   6.1577   8.0810   9.2137  10.7785  10.8881  13.4611
    14.3080  14.9848  15.2619  15.9257

          k =-0.4375 0.3248-0.0673 (  4394 PWs)   bands (ev):

   -99.3047 -98.0150 -97.9140 -97.4872 -51.0058 -50.5554 -50.4398 -49.4020
   -49.3598 -49.2959 -49.2812 -49.1999 -49.1934 -48.9027 -48.7873 -48.6965
   -17.3239  -3.4108  -1.8731  -0.8968   0.2693   0.4016   0.6059   1.0150
     1.2627   1.5058   1.8104   2.4917   2.6185   3.0752   3.4573   3.8679
     4.3327   4.5311   4.7684   5.3593   5.5186   5.5957   5.8568   6.1025
     6.3355   6.8999   7.8990   8.5670   9.7159  10.4579  10.6939  11.4656
    12.2381  13.4433  14.6757  16.3747

          k = 0.5000 0.2165-0.0673 (  4394 PWs)   bands (ev):

   -99.3047 -98.0150 -97.9140 -97.4872 -51.0058 -50.5554 -50.4398 -49.4020
   -49.3598 -49.2959 -49.2812 -49.1999 -49.1934 -48.9027 -48.7873 -48.6965
   -17.3239  -3.4108  -1.8731  -0.8968   0.2693   0.4016   0.6059   1.0150
     1.2627   1.5058   1.8104   2.4915   2.6186   3.0752   3.4573   3.8679
     4.3327   4.5310   4.7684   5.3593   5.5186   5.5957   5.8568   6.1024
     6.3356   6.8999   7.8989   8.5670   9.7159  10.4569  10.6952  11.4655
    12.2380  13.4431  14.6759  16.3747

          k = 0.4375-0.1804-0.0673 (  4416 PWs)   bands (ev):

   -99.3053 -98.0156 -97.9146 -97.4878 -51.0073 -50.5437 -50.4364 -49.3902
   -49.3579 -49.2889 -49.2773 -49.2000 -49.1901 -48.8911 -48.7840 -48.6977
   -17.3590  -3.5573  -1.6973  -0.9091   0.3199   0.4366   0.6804   1.0422
     1.3439   1.5946   1.8754   2.5284   2.6749   3.1099   3.4039   3.7291
     4.0245   4.3713   4.6047   5.0289   5.2852   5.4485   5.5733   5.8087
     5.9238   6.4051   6.9822   8.2864   9.4472  10.7494  11.4089  11.8914
    12.9724  14.4931  15.3194  16.1682

          k =-0.3750-0.2887-0.0673 (  4416 PWs)   bands (ev):

   -99.3053 -98.0156 -97.9146 -97.4878 -51.0073 -50.5437 -50.4364 -49.3902
   -49.3579 -49.2889 -49.2774 -49.2000 -49.1901 -48.8911 -48.7840 -48.6977
   -17.3590  -3.5573  -1.6973  -0.9091   0.3198   0.4367   0.6803   1.0423
     1.3439   1.5946   1.8754   2.5288   2.6744   3.1099   3.4040   3.7288
     4.0246   4.3716   4.6046   5.0288   5.2852   5.4484   5.5733   5.8088
     5.9239   6.4049   6.9822   8.2865   9.4474  10.7491  11.4088  11.8915
    12.9726  14.4932  15.3194  16.1681

          k = 0.3125-0.1083-0.0673 (  4460 PWs)   bands (ev):

   -99.3077 -98.0181 -97.9171 -97.4903 -51.0135 -50.4939 -50.4222 -49.3613
   -49.3380 -49.2638 -49.2460 -49.2009 -49.1759 -48.8413 -48.7695 -48.7024
   -17.5050  -4.0448  -1.3062  -0.7115   0.1927   0.5411   0.7048   1.2039
     1.6503   1.9124   2.1151   2.3709   2.7250   2.8092   2.9953   3.3455
     3.5509   3.7037   3.8863   4.1279   4.4754   4.5419   4.8709   5.1024
     5.3974   5.5450   5.7528   7.5315   9.5877  10.1776  11.0371  13.0381
    14.3620  14.8192  16.1638  16.3051

          k =-0.2500-0.2165-0.0673 (  4460 PWs)   bands (ev):

   -99.3077 -98.0181 -97.9171 -97.4903 -51.0135 -50.4938 -50.4222 -49.3613
   -49.3380 -49.2638 -49.2460 -49.2009 -49.1759 -48.8413 -48.7695 -48.7024
   -17.5050  -4.0448  -1.3062  -0.7115   0.1928   0.5411   0.7047   1.2039
     1.6503   1.9124   2.1152   2.3709   2.7254   2.8089   2.9950   3.3456
     3.5510   3.7038   3.8863   4.1279   4.4754   4.5419   4.8709   5.1024
     5.3974   5.5451   5.7527   7.5316   9.5877  10.1780  11.0363  13.0385
    14.3620  14.8194  16.1637  16.3050

          k = 0.1875-0.0361-0.0673 (  4490 PWs)   bands (ev):

   -99.3106 -98.0211 -97.9200 -97.4933 -51.0210 -50.4346 -50.4054 -49.3706
   -49.2774 -49.2455 -49.2054 -49.1873 -49.1591 -48.7818 -48.7525 -48.7082
   -17.6705  -4.5146  -1.4267  -0.8454  -0.1611   0.1518   0.7928   0.8609
     1.2991   1.9672   2.3229   2.6319   2.8113   2.8720   2.9417   3.0182
     3.4653   3.5367   3.6885   3.7348   3.8844   4.1830   4.4775   4.6789
     4.8763   5.2981   5.6654   6.4405   8.7935  10.6215  11.3750  12.0255
    13.1663  13.4883  15.2503  15.6852

          k =-0.1250-0.1443-0.0673 (  4490 PWs)   bands (ev):

   -99.3106 -98.0211 -97.9200 -97.4933 -51.0210 -50.4346 -50.4054 -49.3706
   -49.2774 -49.2455 -49.2054 -49.1873 -49.1591 -48.7818 -48.7525 -48.7082
   -17.6705  -4.5146  -1.4267  -0.8454  -0.1611   0.1518   0.7929   0.8608
     1.2991   1.9671   2.3229   2.6320   2.8112   2.8722   2.9419   3.0179
     3.4654   3.5367   3.6885   3.7349   3.8839   4.1830   4.4776   4.6791
     4.8762   5.2981   5.6654   6.4407   8.7935  10.6216  11.3739  12.0263
    13.1663  13.4884  15.2503  15.6851

          k = 0.0000-0.0722-0.0673 (  4520 PWs)   bands (ev):

   -99.3122 -98.0227 -97.9217 -97.4949 -51.0252 -50.4007 -50.3960 -49.3770
   -49.2412 -49.2354 -49.2078 -49.1543 -49.1496 -48.7477 -48.7429 -48.7115
   -17.7614  -4.7629  -1.7365  -1.2424  -0.7092   0.0606   0.7227   0.8622
     0.9359   2.2343   2.3673   2.7295   2.9142   2.9170   3.1280   3.2115
     3.2761   3.5660   3.6131   3.6624   3.7820   4.1513   4.6042   4.6388
     5.0728   5.2852   5.6384   5.7301   7.6074  11.2753  11.5734  11.6264
    12.6243  12.9058  14.7178  15.0885

          k = 0.3750 0.0000-0.0673 (  4450 PWs)   bands (ev):

   -99.3068 -98.0171 -97.9161 -97.4894 -51.0111 -50.5040 -50.4370 -49.3592
   -49.3470 -49.2815 -49.2534 -49.2000 -49.1909 -48.8515 -48.7845 -48.7005
   -17.4495  -3.8763  -1.3068  -0.7614   0.2454   0.6139   1.1887   1.5049
     1.7067   1.8947   2.2064   2.2679   2.4821   2.6475   2.8448   3.0175
     3.3608   3.8105   3.8280   4.2466   4.4737   4.8178   5.0315   5.5118
     5.6787   5.9107   6.2981   8.0642   9.4790  10.5941  10.6855  13.5779
    14.8802  15.4026  16.0407  16.4157

          k =-0.3125 0.3969-0.0673 (  4428 PWs)   bands (ev):

   -99.3047 -98.0150 -97.9140 -97.4872 -51.0058 -50.5344 -50.4610 -49.3805
   -49.3535 -49.3059 -49.2795 -49.2147 -49.1985 -48.8819 -48.8086 -48.6965
   -17.3251  -3.4444  -1.5366  -0.8638  -0.1728   0.8756   1.0869   1.5133
     1.7287   1.8898   2.2327   2.3671   2.5375   2.7568   3.1382   3.3886
     3.5971   3.9031   4.2912   4.4364   4.8657   5.1803   5.5866   5.9655
     6.1238   7.3669   8.0605   8.9449   9.9746  10.2791  11.9770  12.4290
    13.2367  14.3968  15.3401  15.8797

          k = 0.5000 0.0722-0.0673 (  4428 PWs)   bands (ev):

   -99.3047 -98.0150 -97.9140 -97.4872 -51.0058 -50.5344 -50.4610 -49.3805
   -49.3535 -49.3059 -49.2795 -49.2147 -49.1985 -48.8819 -48.8086 -48.6965
   -17.3251  -3.4444  -1.5365  -0.8638  -0.1728   0.8756   1.0869   1.5132
     1.7287   1.8898   2.2329   2.3670   2.5376   2.7568   3.1381   3.3886
     3.5974   3.9029   4.2912   4.4365   4.8657   5.1804   5.5867   5.9654
     6.1238   7.3670   8.0603   8.9449   9.9723  10.2818  11.9765  12.4292
    13.2364  14.3968  15.3404  15.8801

          k =-0.4375 0.4691-0.0673 (  4432 PWs)   bands (ev):

   -99.3043 -98.0145 -97.9135 -97.4868 -51.0045 -50.5412 -50.4670 -49.3874
   -49.3537 -49.3112 -49.2853 -49.2204 -49.1983 -48.8887 -48.8147 -48.6955
   -17.2954  -3.3209  -1.6323  -0.8645  -0.2704   0.8665   0.9987   1.5124
     1.6992   1.8083   2.1635   2.3598   2.5104   2.9169   3.3194   3.4681
     3.7706   3.8837   4.4882   4.6558   5.1031   5.3314   5.5879   5.8759
     6.4541   7.6870   8.8643   9.6820   9.9870  10.5333  11.2267  11.8367
    12.8602  13.6329  14.6385  16.0457

          k = 0.6250 0.1443-0.0673 (  4432 PWs)   bands (ev):

   -99.3043 -98.0145 -97.9135 -97.4868 -51.0045 -50.5412 -50.4670 -49.3874
   -49.3537 -49.3112 -49.2853 -49.2204 -49.1983 -48.8887 -48.8147 -48.6955
   -17.2954  -3.3209  -1.6323  -0.8645  -0.2705   0.8665   0.9987   1.5124
     1.6992   1.8083   2.1635   2.3598   2.5104   2.9169   3.3195   3.4680
     3.7703   3.8840   4.4881   4.6558   5.1031   5.3314   5.5879   5.8760
     6.4540   7.6871   8.8643   9.6822   9.9869  10.5333  11.2263  11.8368
    12.8601  13.6337  14.6373  16.0464

          k = 0.4375-0.0361-0.0673 (  4450 PWs)   bands (ev):

   -99.3056 -98.0159 -97.9150 -97.4882 -51.0081 -50.5216 -50.4502 -49.3680
   -49.3537 -49.2956 -49.2684 -49.2046 -49.1987 -48.8691 -48.7978 -48.6982
   -17.3795  -3.6456  -1.4026  -0.8453   0.0103   0.8451   1.2207   1.4866
     1.7913   2.0097   2.1138   2.4111   2.4354   2.7108   2.8801   3.1307
     3.6268   3.7058   3.9810   4.3554   4.5946   5.1097   5.3581   5.7347
     5.9031   6.5960   7.1917   8.6840   9.4156  10.2772  11.3840  13.9051
    14.5888  14.9601  15.6087  15.9681

          k =-0.2500-0.3608-0.0673 (  4450 PWs)   bands (ev):

   -99.3056 -98.0159 -97.9150 -97.4882 -51.0081 -50.5216 -50.4503 -49.3680
   -49.3537 -49.2956 -49.2684 -49.2046 -49.1987 -48.8691 -48.7978 -48.6982
   -17.3795  -3.6456  -1.4026  -0.8453   0.0103   0.8451   1.2207   1.4866
     1.7912   2.0097   2.1137   2.4113   2.4354   2.7105   2.8801   3.1308
     3.6267   3.7057   3.9810   4.3554   4.5946   5.1097   5.3579   5.7350
     5.9031   6.5959   7.1917   8.6843   9.4162  10.2759  11.3842  13.9052
    14.5894  14.9597  15.6084  15.9680

          k = 0.3125 0.0361-0.0673 (  4452 PWs)   bands (ev):

   -99.3081 -98.0184 -97.9174 -97.4907 -51.0144 -50.4836 -50.4239 -49.3618
   -49.3275 -49.2664 -49.2359 -49.2008 -49.1778 -48.8311 -48.7713 -48.7031
   -17.5241  -4.1018  -1.2912  -0.5919   0.1651   0.4837   0.8195   1.4147
     1.7424   1.8855   2.0672   2.3838   2.4586   2.7135   2.8432   3.1883
     3.3527   3.7169   3.7848   4.0444   4.3845   4.4790   4.7920   5.1030
     5.4370   5.5545   5.7034   7.4557   9.7614  10.0901  10.9372  12.9237
    14.1975  14.6576  16.1630  16.7130

          k =-0.1250-0.2887-0.0673 (  4452 PWs)   bands (ev):

   -99.3081 -98.0184 -97.9174 -97.4907 -51.0144 -50.4836 -50.4240 -49.3618
   -49.3275 -49.2664 -49.2359 -49.2008 -49.1778 -48.8311 -48.7713 -48.7031
   -17.5241  -4.1018  -1.2913  -0.5918   0.1651   0.4836   0.8195   1.4147
     1.7423   1.8857   2.0672   2.3840   2.4587   2.7137   2.8427   3.1883
     3.3527   3.7170   3.7848   4.0442   4.3845   4.4791   4.7919   5.1030
     5.4370   5.5546   5.7034   7.4561   9.7615  10.0901  10.9360  12.9245
    14.1975  14.6578  16.1632  16.7122

          k = 0.0000-0.2165-0.0673 (  4480 PWs)   bands (ev):

   -99.3101 -98.0206 -97.9195 -97.4928 -51.0197 -50.4455 -50.4074 -49.3688
   -49.2888 -49.2473 -49.2068 -49.1964 -49.1610 -48.7928 -48.7545 -48.7072
   -17.6430  -4.4390  -1.3828  -0.6960  -0.1281   0.1533   0.7754   0.9527
     1.4326   1.9333   2.2681   2.5678   2.7931   2.8491   3.0085   3.0393
     3.4290   3.5174   3.7462   3.8564   3.8784   4.2600   4.4630   4.6364
     5.0721   5.1323   5.7447   6.6208   9.0552  10.4155  11.3543  12.1584
    13.3365  13.6839  15.4104  15.8748

          k = 0.6250 0.0000-0.0673 (  4434 PWs)   bands (ev):

   -99.3038 -98.0140 -97.9131 -97.4863 -51.0034 -50.5199 -50.5000 -49.3656
   -49.3488 -49.3450 -49.2703 -49.2506 -49.1975 -48.8675 -48.8477 -48.6946
   -17.2692  -3.2302  -1.2599  -0.9041  -0.8226   1.1829   1.3325   1.9418
     1.9697   2.0960   2.2051   2.3899   2.5475   2.8065   2.9049   3.2951
     3.8173   3.8400   4.0050   4.3644   4.7017   5.3182   5.5358   5.6931
     6.4106   8.3723   8.9527   9.9786  10.9892  11.1235  11.2764  12.6250
    12.9688  13.7094  14.3225  15.2060

          k =-0.4375 0.6134-0.0673 (  4444 PWs)   bands (ev):

   -99.3041 -98.0144 -97.9134 -97.4866 -51.0042 -50.5302 -50.4810 -49.3761
   -49.3508 -49.3260 -49.2773 -49.2339 -49.1979 -48.8778 -48.8287 -48.6953
   -17.2889  -3.3069  -1.4486  -0.8396  -0.5516   1.0359   1.2946   1.7685
     1.8432   2.0934   2.1924   2.3557   2.5842   2.7044   3.0097   3.3127
     3.7261   3.8310   4.1410   4.3513   4.7749   5.2299   5.5738   5.8816
     6.3776   7.9698   8.9127   9.4503   9.9537  11.2492  11.6887  12.3826
    13.2969  13.5468  14.6640  15.3590

          k = 0.7500 0.0722-0.0673 (  4444 PWs)   bands (ev):

   -99.3041 -98.0144 -97.9134 -97.4866 -51.0042 -50.5302 -50.4810 -49.3761
   -49.3508 -49.3260 -49.2773 -49.2339 -49.1979 -48.8778 -48.8288 -48.6953
   -17.2889  -3.3069  -1.4486  -0.8396  -0.5516   1.0359   1.2948   1.7685
     1.8432   2.0931   2.1923   2.3558   2.5844   2.7043   3.0097   3.3128
     3.7260   3.8310   4.1410   4.3513   4.7749   5.2300   5.5739   5.8816
     6.3775   7.9699   8.9128   9.4505   9.9535  11.2487  11.6892  12.3823
    13.2965  13.5473  14.6637  15.3596

          k = 0.4375 0.1083-0.0673 (  4428 PWs)   bands (ev):

   -99.3055 -98.0158 -97.9148 -97.4880 -51.0078 -50.5315 -50.4432 -49.3778
   -49.3556 -49.2886 -49.2759 -49.1999 -49.1967 -48.8789 -48.7908 -48.6980
   -17.3722  -3.6146  -1.5255  -0.8876   0.1690   0.6502   0.9042   1.2509
     1.5966   1.7426   2.1168   2.4280   2.6353   2.9071   3.2637   3.3477
     3.6526   3.9977   4.4409   4.5034   4.8752   5.2637   5.3186   5.7546
     5.8831   6.5225   7.1012   8.5158   9.3924  10.5075  11.3916  12.9114
    13.9186  14.8001  15.6708  15.9538

          k =-0.1250-0.4330-0.0673 (  4428 PWs)   bands (ev):

   -99.3055 -98.0158 -97.9148 -97.4880 -51.0078 -50.5315 -50.4433 -49.3778
   -49.3556 -49.2886 -49.2759 -49.1999 -49.1967 -48.8789 -48.7908 -48.6980
   -17.3722  -3.6146  -1.5255  -0.8876   0.1690   0.6501   0.9041   1.2511
     1.5968   1.7426   2.1169   2.4280   2.6349   2.9071   3.2636   3.3478
     3.6525   3.9978   4.4410   4.5034   4.8752   5.2638   5.3185   5.7546
     5.8831   6.5225   7.1013   8.5165   9.3919  10.5069  11.3915  12.9114
    13.9197  14.7997  15.6709  15.9539

          k = 0.0000-0.3608-0.0673 (  4442 PWs)   bands (ev):

   -99.3071 -98.0175 -97.9165 -97.4897 -51.0120 -50.5084 -50.4234 -49.3613
   -49.3518 -49.2641 -49.2600 -49.2009 -49.1770 -48.8559 -48.7707 -48.7013
   -17.4695  -3.9360  -1.3566  -0.8357   0.2680   0.5589   0.6566   1.0915
     1.5132   1.8004   2.0249   2.6577   2.7445   2.9760   3.1826   3.4018
     3.6776   3.9427   3.9572   4.4367   4.5941   4.9036   4.9521   5.1558
     5.4480   5.6244   5.7755   7.7242   9.3623  10.4001  11.0547  13.2722
    14.6722  15.0689  15.2596  16.0562

          k = 0.8750 0.0000-0.0673 (  4420 PWs)   bands (ev):

   -99.3045 -98.0147 -97.9138 -97.4870 -51.0051 -50.5511 -50.4513 -49.3977
   -49.3574 -49.2964 -49.2902 -49.2050 -49.1991 -48.8985 -48.7989 -48.6960
   -17.3077  -3.3543  -1.8018  -0.8816   0.0430   0.6103   0.7306   1.2240
     1.4503   1.5916   2.0175   2.3302   2.5895   3.1936   3.2188   3.8075
     4.0289   4.1656   4.7163   5.1490   5.3971   5.4130   5.7379   5.9161
     6.5335   7.2714   8.6590   9.2481   9.9100  10.3133  10.5982  11.6641
    12.2590  13.7488  14.2688  16.6263

          k = 0.0000-0.5052-0.0673 (  4396 PWs)   bands (ev):

   -99.3050 -98.0153 -97.9143 -97.4876 -51.0065 -50.5526 -50.4347 -49.3992
   -49.3598 -49.2942 -49.2759 -49.2003 -49.1884 -48.8999 -48.7822 -48.6971
   -17.3419  -3.4839  -1.8310  -0.9083   0.2972   0.4120   0.5825   0.9489
     1.2306   1.4998   1.7686   2.6028   2.6104   3.0433   3.6002   3.7694
     4.4672   4.5779   4.7793   5.1158   5.5601   5.7313   5.8866   5.9042
     6.2347   6.4288   7.1962   8.1669   9.6121  10.8352  10.8756  11.6016
    12.3122  13.7923  15.2211  16.0919

     the Fermi energy is     7.8058 ev

!    total energy              =   -1158.81851714 Ry
     Harris-Foulkes estimate   =   -1158.81851748 Ry
     estimated scf accuracy    <       0.00000043 Ry

     The total energy is the sum of the following terms:

     one-electron contribution =   -6251.40443449 Ry
     hartree contribution      =    3130.48611856 Ry
     xc contribution           =    -113.50955265 Ry
     ewald contribution        =    2091.32362504 Ry
     one-center paw contrib.   =     -15.71363248 Ry
     smearing contrib. (-TS)   =      -0.00064112 Ry

     convergence has been achieved in  13 iterations

     Forces acting on atoms (Ry/au):


     negative rho (up, down):  1.449E-04 0.000E+00
     atom    1 type  1   force =     0.00000000    0.00000003   -0.02134914
     atom    2 type  1   force =     0.00000000   -0.00000221    0.00024055
     atom    3 type  1   force =     0.00000000   -0.00001483    0.00857277
     atom    4 type  1   force =     0.00000000   -0.00009506   -0.16088074
     atom    5 type  2   force =     0.00000000   -0.00003062    0.04493672
     atom    6 type  3   force =     0.00000000    0.00014269    0.12847985

     Total force =     0.211987     Total SCF correction =     0.005960

     BFGS Geometry Optimization

     number of scf cycles    =   1
     number of bfgs steps    =   0

     energy   new            =   -1158.8185171404 Ry

     new trust radius        =       0.1608807691 bohr
     new conv_thr            =       0.0000010000 Ry


ATOMIC_POSITIONS (alat)
Au      -0.000000000   0.000000006  -0.003917992
Au       0.500000000   0.288674594   0.816541145
Au       0.000000000   0.577347279   1.634566274
Au       0.000000000  -0.000017445   2.419965181
C        0.000000000  -0.000005620   3.081980783
O        0.000001000   0.001026186   3.488421610



     Writing output data file CO_Au_top.save
     Check: negative starting charge=   -0.000174
     NEW-OLD atomic charge density approx. for the potential

     Check: negative/imaginary core charge=   -0.000003    0.000000
     Check: negative starting charge=   -0.000184

     negative rho (up, down):  1.119E-04 0.000E+00

     total cpu time spent up to now is      948.2 secs

     per-process dynamical memory:   343.1 Mb

     Self-consistent Calculation

     iteration #  1     ecut=    40.00 Ry     beta=0.70
     Davidson diagonalization with overlap
     ethr =  1.00E-06,  avg # of iterations =  5.1

     negative rho (up, down):  1.292E-04 0.000E+00

     total cpu time spent up to now is     1070.6 secs

     total energy              =   -1158.83122014 Ry
     Harris-Foulkes estimate   =   -1158.81550999 Ry
     estimated scf accuracy    <       0.01681810 Ry

     iteration #  2     ecut=    40.00 Ry     beta=0.70
     Davidson diagonalization with overlap
     ethr =  1.96E-05,  avg # of iterations =  3.9

     negative rho (up, down):  1.287E-04 0.000E+00

     total cpu time spent up to now is     1129.8 secs

     total energy              =   -1158.78694787 Ry
     Harris-Foulkes estimate   =   -1158.88221012 Ry
     estimated scf accuracy    <       0.76750274 Ry

     iteration #  3     ecut=    40.00 Ry     beta=0.70
     Davidson diagonalization with overlap
     ethr =  1.96E-05,  avg # of iterations =  4.9

     negative rho (up, down):  1.326E-04 0.000E+00

     total cpu time spent up to now is     1187.2 secs

     total energy              =   -1158.82458082 Ry
     Harris-Foulkes estimate   =   -1158.85691293 Ry
     estimated scf accuracy    <       0.31865405 Ry

     iteration #  4     ecut=    40.00 Ry     beta=0.70
     Davidson diagonalization with overlap
     ethr =  1.96E-05,  avg # of iterations =  3.5

     negative rho (up, down):  1.338E-04 0.000E+00

     total cpu time spent up to now is     1242.9 secs

     total energy              =   -1158.83960833 Ry
     Harris-Foulkes estimate   =   -1158.84184805 Ry
     estimated scf accuracy    <       0.00619699 Ry

     iteration #  5     ecut=    40.00 Ry     beta=0.70
     Davidson diagonalization with overlap
     ethr =  7.21E-06,  avg # of iterations =  3.4

     negative rho (up, down):  1.373E-04 0.000E+00

     total cpu time spent up to now is     1293.0 secs

     total energy              =   -1158.83966660 Ry
     Harris-Foulkes estimate   =   -1158.84181008 Ry
     estimated scf accuracy    <       0.00949570 Ry

     iteration #  6     ecut=    40.00 Ry     beta=0.70
     Davidson diagonalization with overlap
     ethr =  7.21E-06,  avg # of iterations =  3.5

     negative rho (up, down):  1.366E-04 0.000E+00

     total cpu time spent up to now is     1341.2 secs

     total energy              =   -1158.84038941 Ry
     Harris-Foulkes estimate   =   -1158.84163146 Ry
     estimated scf accuracy    <       0.00720027 Ry

     iteration #  7     ecut=    40.00 Ry     beta=0.70
     Davidson diagonalization with overlap
     ethr =  7.21E-06,  avg # of iterations =  2.5

     negative rho (up, down):  1.360E-04 0.000E+00

     total cpu time spent up to now is     1386.1 secs

     total energy              =   -1158.84094406 Ry
     Harris-Foulkes estimate   =   -1158.84101797 Ry
     estimated scf accuracy    <       0.00023721 Ry

     iteration #  8     ecut=    40.00 Ry     beta=0.70
     Davidson diagonalization with overlap
     ethr =  2.76E-07,  avg # of iterations =  2.1

     negative rho (up, down):  1.363E-04 0.000E+00

     total cpu time spent up to now is     1430.9 secs

     total energy              =   -1158.84097875 Ry
     Harris-Foulkes estimate   =   -1158.84098951 Ry
     estimated scf accuracy    <       0.00003478 Ry

     iteration #  9     ecut=    40.00 Ry     beta=0.70
     Davidson diagonalization with overlap
     ethr =  4.04E-08,  avg # of iterations =  2.0

     negative rho (up, down):  1.364E-04 0.000E+00

     total cpu time spent up to now is     1478.3 secs

     total energy              =   -1158.84098314 Ry
     Harris-Foulkes estimate   =   -1158.84098415 Ry
     estimated scf accuracy    <       0.00000247 Ry

     iteration # 10     ecut=    40.00 Ry     beta=0.70
     Davidson diagonalization with overlap
     ethr =  2.88E-09,  avg # of iterations =  2.0

     negative rho (up, down):  1.364E-04 0.000E+00

     total cpu time spent up to now is     1531.8 secs

     End of self-consistent calculation

          k = 0.0625 0.1083-0.0673 (  4518 PWs)   bands (ev):

   -99.0574 -98.1534 -98.0400 -97.6099 -50.6488 -50.1939 -50.1802 -49.5093
   -49.3892 -49.3743 -49.3255 -49.2854 -49.2720 -48.8751 -48.8616 -48.8234
   -16.9318  -4.2519  -1.6343  -0.9193  -0.3670   0.1670   0.8207   1.3462
     1.5906   2.2148   2.5586   2.6386   2.7038   2.9384   2.9829   3.0906
     3.3230   3.4595   3.6262   3.7197   3.8381   3.8564   4.4780   4.5834
     4.8812   5.2036   5.5390   5.8710   7.9825  10.7572  11.2142  11.5155
    12.8531  13.0844  14.8279  15.2933

          k = 0.0625 0.2526-0.0673 (  4466 PWs)   bands (ev):

   -99.0550 -98.1509 -98.0375 -97.6075 -50.6419 -50.2451 -50.1946 -49.5009
   -49.4416 -49.3894 -49.3372 -49.3200 -49.2864 -48.9258 -48.8760 -48.8184
   -16.7861  -3.8294  -1.0332  -0.4352   0.3524   0.4136   1.1413   1.3791
     1.5733   1.8347   2.2500   2.3654   2.5567   2.8438   2.9809   3.2403
     3.3283   3.4197   3.6953   3.9686   4.0343   4.2409   4.4836   4.7237
     4.9567   5.2797   5.5797   6.8787   9.3504   9.8134  10.9174  12.2725
    13.7658  14.0271  15.6499  16.2246

          k = 0.0625 0.3969-0.0673 (  4438 PWs)   bands (ev):

   -99.0521 -98.1479 -98.0346 -97.6045 -50.6339 -50.3050 -50.2116 -49.5037
   -49.4918 -49.4072 -49.3918 -49.3181 -49.3033 -48.9850 -48.8930 -48.8126
   -16.6071  -3.2689  -0.9256  -0.4258   0.4176   0.6975   1.0378   1.1540
     1.4084   1.6957   1.9493   2.5745   2.7858   2.9618   3.2175   3.3012
     3.6880   3.9756   4.3429   4.4618   4.7787   4.9048   5.1375   5.4144
     5.5475   5.7307   6.0526   7.9407   8.8649  10.5744  10.6645  13.3142
    14.2165  14.9105  15.3675  15.8816

          k = 0.0625 0.5413-0.0673 (  4394 PWs)   bands (ev):

   -99.0505 -98.1462 -98.0329 -97.6028 -50.6294 -50.3386 -50.2212 -49.5365
   -49.4928 -49.4203 -49.4158 -49.3170 -49.3128 -49.0182 -48.9027 -48.8094
   -16.5020  -2.8655  -1.2355  -0.5202   0.4144   0.5303   0.9058   1.0338
     1.1847   1.4637   1.7602   2.5058   2.6010   2.9780   3.4424   3.8330
     4.2270   4.5314   4.7887   5.2747   5.4139   5.4759   5.7352   5.9776
     6.2415   6.7975   7.8027   8.4535   9.5747  10.1229  10.4111  11.3395
    12.1756  13.3937  14.6183  16.2532

          k = 0.0625-0.4691-0.0673 (  4416 PWs)   bands (ev):

   -99.0510 -98.1468 -98.0335 -97.6034 -50.6310 -50.3268 -50.2178 -49.5248
   -49.4921 -49.4145 -49.4093 -49.3174 -49.3094 -49.0066 -48.8993 -48.8105
   -16.5392  -3.0209  -1.0870  -0.5115   0.4427   0.6036   0.9500   1.0757
     1.2650   1.5462   1.8289   2.5310   2.6776   3.0205   3.3775   3.6965
     3.9571   4.3453   4.5848   4.9837   5.2232   5.3372   5.4649   5.7564
     5.8199   6.2635   6.8585   8.1078   9.1763  10.4650  11.2899  11.7225
    12.8985  14.3889  15.2781  16.2443

          k = 0.0625-0.3248-0.0673 (  4460 PWs)   bands (ev):

   -99.0535 -98.1493 -98.0360 -97.6059 -50.6378 -50.2763 -50.2035 -49.4968
   -49.4727 -49.3986 -49.3660 -49.3192 -49.2952 -48.9567 -48.8849 -48.8154
   -16.6941  -3.5517  -0.9100  -0.2430   0.2545   0.6836   1.1520   1.2604
     1.5877   1.8209   2.1106   2.4252   2.6690   2.8417   2.9433   3.2565
     3.4619   3.7230   3.8896   4.0662   4.4081   4.4720   4.8048   5.0045
     5.2817   5.4577   5.6504   7.4123   9.2340  10.0387  10.7452  12.8901
    14.4622  14.7678  16.0442  16.2664

          k = 0.0625-0.1804-0.0673 (  4490 PWs)   bands (ev):

   -99.0564 -98.1523 -98.0389 -97.6089 -50.6458 -50.2161 -50.1864 -49.5055
   -49.4122 -49.3808 -49.3243 -49.3067 -49.2783 -48.8972 -48.8678 -48.8212
   -16.8693  -4.0717  -1.3118  -0.7393  -0.0280   0.4269   1.0999   1.1914
     1.4974   2.0283   2.3843   2.5036   2.8139   2.8632   2.9597   3.0660
     3.3721   3.4222   3.6025   3.6916   3.8961   4.0860   4.4067   4.5995
     4.7988   5.2138   5.5487   6.3571   8.6697  10.3221  11.0829  11.8172
    13.2281  13.4540  15.1703  15.6760

          k = 0.0625-0.0361-0.0673 (  4520 PWs)   bands (ev):

   -99.0580 -98.1540 -98.0406 -97.6105 -50.6504 -50.1817 -50.1769 -49.5114
   -49.3763 -49.3709 -49.3268 -49.2735 -49.2687 -48.8630 -48.8583 -48.8246
   -16.9652  -4.3485  -1.8260  -1.0252  -0.5256  -0.0185   0.6109   1.5438
     1.6396   2.3331   2.4736   2.7105   2.8186   2.8587   3.0194   3.1559
     3.1747   3.5441   3.6329   3.7452   3.7610   4.0528   4.5136   4.5472
     4.9949   5.1962   5.5388   5.6104   7.4938  11.0075  11.2838  11.3664
    12.6549  12.9072  14.6489  15.1013

          k = 0.1875 0.3248-0.0673 (  4450 PWs)   bands (ev):

   -99.0525 -98.1484 -98.0350 -97.6050 -50.6351 -50.2865 -50.2185 -49.4947
   -49.4820 -49.4153 -49.3745 -49.3180 -49.3101 -48.9669 -48.8998 -48.8134
   -16.6353  -3.3660  -0.8643  -0.2218   0.5544   0.9314   1.1291   1.4998
     1.7381   1.9658   2.0861   2.1814   2.4065   2.6988   2.8077   2.9421
     3.2515   3.7096   3.8387   4.1859   4.4191   4.8847   4.9244   5.4231
     5.5706   5.7875   6.1959   7.9340   9.1236  10.3011  10.5398  13.4508
    14.9927  15.3444  15.8970  16.3190

          k = 0.1875 0.4691-0.0673 (  4428 PWs)   bands (ev):

   -99.0505 -98.1462 -98.0329 -97.6028 -50.6294 -50.3174 -50.2428 -49.5152
   -49.4885 -49.4400 -49.4019 -49.3341 -49.3158 -48.9974 -48.9240 -48.8093
   -16.5033  -2.8970  -0.9279  -0.4356   0.5066   0.8429   1.0484   1.4446
     1.7013   1.8033   2.2399   2.3763   2.4759   2.7751   3.0805   3.3017
     3.5357   3.8623   4.2009   4.3621   4.7783   5.0682   5.5058   5.8477
     6.1013   7.2312   7.9281   8.7283   9.7004  10.0782  11.8718  12.2738
    13.1392  14.2910  15.2551  15.7851

          k = 0.1875 0.6134-0.0673 (  4432 PWs)   bands (ev):

   -99.0500 -98.1457 -98.0324 -97.6023 -50.6280 -50.3242 -50.2489 -49.5220
   -49.4882 -49.4457 -49.4080 -49.3399 -49.3155 -49.0041 -48.9300 -48.8083
   -16.4717  -2.7658  -0.9883  -0.4651   0.4053   0.8394   0.9727   1.4316
     1.6673   1.7260   2.2485   2.3017   2.4047   2.9382   3.2542   3.4391
     3.6734   3.8555   4.4325   4.5509   4.9878   5.2597   5.4775   5.7574
     6.3367   7.5575   8.7411   9.5020   9.7612  10.3784  11.0273  11.7036
    12.7640  13.5529  14.5557  15.9468

          k = 0.1875-0.3969-0.0673 (  4450 PWs)   bands (ev):

   -99.0514 -98.1472 -98.0338 -97.6038 -50.6319 -50.3044 -50.2319 -49.5027
   -49.4892 -49.4293 -49.3904 -49.3237 -49.3165 -48.9845 -48.9132 -48.8111
   -16.5611  -3.1140  -0.8696  -0.3555   0.6932   0.7877   1.1622   1.4522
     1.7656   1.9427   2.1505   2.3272   2.5364   2.6512   2.7928   3.0456
     3.5347   3.6538   3.9454   4.2502   4.5476   4.9867   5.3663   5.7013
     5.8034   6.4584   7.0724   8.5067   9.1150   9.9838  11.2552  13.7784
    14.4797  14.8510  15.6131  15.9922

          k = 0.1875-0.2526-0.0673 (  4452 PWs)   bands (ev):

   -99.0538 -98.1497 -98.0363 -97.6063 -50.6387 -50.2659 -50.2052 -49.4973
   -49.4623 -49.4009 -49.3559 -49.3192 -49.2970 -48.9464 -48.8866 -48.8160
   -16.7143  -3.6143  -0.9187  -0.1781   0.2911   0.7922   1.1809   1.3981
     1.7102   1.8576   2.1212   2.2727   2.3671   2.6963   2.9066   3.0975
     3.2540   3.6611   3.8403   3.9882   4.3215   4.4410   4.7266   4.9962
     5.3180   5.4438   5.6288   7.3401   9.4153   9.9512  10.6418  12.7716
    14.2976  14.6043  16.0903  16.6753

          k = 0.1875-0.1083-0.0673 (  4480 PWs)   bands (ev):

   -99.0559 -98.1518 -98.0384 -97.6084 -50.6444 -50.2273 -50.1884 -49.5038
   -49.4235 -49.3827 -49.3254 -49.3159 -49.2802 -48.9081 -48.8698 -48.8202
   -16.8402  -3.9877  -1.1937  -0.6478   0.1160   0.4435   1.0431   1.3281
     1.4788   1.9508   2.3588   2.4870   2.7157   2.8909   2.9763   3.1454
     3.3362   3.4198   3.6853   3.7909   3.8143   4.1835   4.3869   4.5640
     4.9962   5.0561   5.6249   6.5341   8.9255  10.1091  11.0627  11.9605
    13.4080  13.6433  15.3320  15.8616

          k = 0.3125 0.5413-0.0673 (  4434 PWs)   bands (ev):

   -99.0495 -98.1453 -98.0320 -97.6019 -50.6268 -50.3026 -50.2824 -49.5002
   -49.4845 -49.4797 -49.3907 -49.3710 -49.3146 -48.9829 -48.9631 -48.8074
   -16.4439  -2.6668  -0.6091  -0.4094  -0.2362   1.1505   1.2578   1.8342
     1.8932   2.1970   2.2843   2.3858   2.5396   2.6701   2.8167   3.1789
     3.7068   3.8883   3.9550   4.2305   4.5903   5.2585   5.4196   5.5684
     6.2722   8.1767   8.7079   9.8426  10.8538  11.0025  11.1625  12.4598
    12.8430  13.5817  14.2322  15.1126

          k = 0.3125 0.6856-0.0673 (  4444 PWs)   bands (ev):

   -99.0498 -98.1456 -98.0323 -97.6022 -50.6277 -50.3131 -50.2631 -49.5108
   -49.4862 -49.4605 -49.3989 -49.3536 -49.3150 -48.9932 -48.9441 -48.8081
   -16.4649  -2.7491  -0.8167  -0.4176   0.1220   1.0118   1.2128   1.7054
     1.7878   2.1260   2.2239   2.3209   2.5320   2.6679   2.9731   3.1802
     3.6427   3.8511   4.0534   4.2491   4.6684   5.1412   5.4796   5.7602
     6.2770   7.8180   8.7609   9.1891   9.7825  11.1389  11.5257  12.2519
    13.1656  13.4600  14.5676  15.2325

          k = 0.3125-0.3248-0.0673 (  4428 PWs)   bands (ev):

   -99.0512 -98.1470 -98.0337 -97.6036 -50.6316 -50.3145 -50.2248 -49.5124
   -49.4906 -49.4216 -49.3993 -49.3176 -49.3157 -48.9944 -48.9061 -48.8109
   -16.5533  -3.0814  -0.9505  -0.4468   0.6244   0.8205   0.8943   1.2116
     1.5158   1.7053   2.0424   2.4409   2.6649   2.8964   3.1825   3.2871
     3.6056   3.9407   4.3453   4.4566   4.7916   5.1498   5.3140   5.7111
     5.7877   6.3823   6.9795   8.3260   9.1128  10.2175  11.2679  12.7619
    13.8334  14.6978  15.6153  16.0481

          k = 0.3125-0.1804-0.0673 (  4442 PWs)   bands (ev):

   -99.0529 -98.1487 -98.0354 -97.6053 -50.6361 -50.2911 -50.2046 -49.4966
   -49.4866 -49.3994 -49.3799 -49.3188 -49.2963 -48.9713 -48.8861 -48.8142
   -16.6565  -3.4323  -0.9062  -0.3481   0.2861   0.6295   1.0442   1.2592
     1.4444   1.7143   2.0105   2.6664   2.8213   2.9051   3.1224   3.3021
     3.6750   3.8731   4.0469   4.3375   4.5452   4.8044   4.8633   5.0614
     5.3322   5.5517   5.6563   7.5955   9.0066  10.2598  10.7652  13.1280
    14.7455  15.0256  15.1698  16.0175

          k = 0.4375 0.7578-0.0673 (  4420 PWs)   bands (ev):

   -99.0502 -98.1459 -98.0326 -97.6026 -50.6286 -50.3344 -50.2329 -49.5322
   -49.4909 -49.4294 -49.4156 -49.3244 -49.3162 -49.0140 -48.9143 -48.8088
   -16.4847  -2.8037  -1.1583  -0.4969   0.6006   0.6703   0.7569   1.1575
     1.3644   1.5652   1.9403   2.4123   2.5006   3.1058   3.2202   3.8299
     3.8907   4.1637   4.6807   5.0244   5.2714   5.3644   5.6159   5.7953
     6.3928   7.1940   8.5690   9.1401   9.7896  10.0237  10.2831  11.5205
    12.1755  13.7415  14.1644  16.4701

          k = 0.4375-0.2526-0.0673 (  4396 PWs)   bands (ev):

   -99.0508 -98.1465 -98.0332 -97.6031 -50.6302 -50.3359 -50.2160 -49.5338
   -49.4931 -49.4175 -49.4111 -49.3174 -49.3077 -49.0154 -48.8975 -48.8100
   -16.5211  -2.9435  -1.2032  -0.5300   0.3547   0.5005   0.8750   1.1094
     1.1554   1.4436   1.7350   2.5465   2.6774   2.9323   3.5949   3.7089
     4.3255   4.5689   4.9231   5.0226   5.4451   5.6019   5.7657   5.8515
     6.1192   6.2897   7.0826   8.0232   9.3627  10.5532  10.6771  11.4569
    12.2629  13.7101  15.1972  15.9828

          k = 0.1250 0.0000-0.0673 (  4518 PWs)   bands (ev):

   -99.0574 -98.1534 -98.0400 -97.6099 -50.6488 -50.1939 -50.1802 -49.5093
   -49.3892 -49.3743 -49.3255 -49.2854 -49.2720 -48.8751 -48.8616 -48.8234
   -16.9318  -4.2519  -1.6343  -0.9193  -0.3669   0.1670   0.8207   1.3462
     1.5907   2.2148   2.5586   2.6385   2.7038   2.9384   2.9828   3.0906
     3.3230   3.4595   3.6258   3.7197   3.8384   3.8566   4.4780   4.5834
     4.8812   5.2037   5.5389   5.8709   7.9824  10.7574  11.2148  11.5147
    12.8530  13.0844  14.8278  15.2933

          k =-0.1875 0.1804-0.0673 (  4466 PWs)   bands (ev):

   -99.0550 -98.1509 -98.0375 -97.6075 -50.6419 -50.2451 -50.1946 -49.5009
   -49.4416 -49.3893 -49.3372 -49.3200 -49.2864 -48.9258 -48.8760 -48.8184
   -16.7861  -3.8294  -1.0332  -0.4352   0.3525   0.4134   1.1414   1.3791
     1.5734   1.8347   2.2497   2.3657   2.5566   2.8440   2.9808   3.2402
     3.3284   3.4197   3.6953   3.9685   4.0343   4.2409   4.4836   4.7237
     4.9567   5.2797   5.5797   6.8785   9.3497   9.8146  10.9171  12.2722
    13.7658  14.0270  15.6499  16.2246

          k = 0.2500 0.0722-0.0673 (  4466 PWs)   bands (ev):

   -99.0550 -98.1509 -98.0375 -97.6075 -50.6419 -50.2451 -50.1946 -49.5009
   -49.4416 -49.3893 -49.3372 -49.3200 -49.2864 -48.9258 -48.8760 -48.8184
   -16.7861  -3.8294  -1.0332  -0.4352   0.3525   0.4134   1.1413   1.3792
     1.5734   1.8347   2.2497   2.3655   2.5566   2.8438   2.9812   3.2402
     3.3283   3.4197   3.6952   3.9687   4.0343   4.2410   4.4835   4.7237
     4.9567   5.2796   5.5797   6.8784   9.3497   9.8144  10.9179  12.2718
    13.7657  14.0269  15.6498  16.2247

          k =-0.3125 0.2526-0.0673 (  4438 PWs)   bands (ev):

   -99.0521 -98.1479 -98.0346 -97.6045 -50.6339 -50.3050 -50.2116 -49.5037
   -49.4918 -49.4072 -49.3918 -49.3181 -49.3033 -48.9850 -48.8930 -48.8126
   -16.6071  -3.2689  -0.9256  -0.4259   0.4178   0.6975   1.0377   1.1541
     1.4081   1.6958   1.9492   2.5749   2.7857   2.9616   3.2176   3.3013
     3.6879   3.9758   4.3428   4.4618   4.7787   4.9047   5.1375   5.4145
     5.5476   5.7307   6.0526   7.9401   8.8658  10.5746  10.6643  13.3136
    14.2168  14.9101  15.3676  15.8819

          k = 0.3750 0.1443-0.0673 (  4438 PWs)   bands (ev):

   -99.0521 -98.1479 -98.0346 -97.6045 -50.6339 -50.3050 -50.2116 -49.5037
   -49.4918 -49.4072 -49.3918 -49.3181 -49.3033 -48.9850 -48.8930 -48.8126
   -16.6071  -3.2689  -0.9256  -0.4259   0.4178   0.6974   1.0379   1.1540
     1.4082   1.6957   1.9492   2.5746   2.7861   2.9617   3.2176   3.3013
     3.6880   3.9755   4.3428   4.4618   4.7787   4.9049   5.1375   5.4144
     5.5474   5.7308   6.0526   7.9399   8.8657  10.5736  10.6656  13.3134
    14.2167  14.9101  15.3676  15.8818

          k =-0.4375 0.3248-0.0673 (  4394 PWs)   bands (ev):

   -99.0505 -98.1462 -98.0329 -97.6028 -50.6294 -50.3387 -50.2212 -49.5365
   -49.4928 -49.4203 -49.4158 -49.3170 -49.3128 -49.0182 -48.9027 -48.8094
   -16.5020  -2.8655  -1.2355  -0.5202   0.4145   0.5306   0.9057   1.0337
     1.1844   1.4638   1.7600   2.5062   2.6010   2.9780   3.4423   3.8327
     4.2275   4.5315   4.7886   5.2744   5.4138   5.4760   5.7352   5.9777
     6.2420   6.7966   7.8031   8.4534   9.5747  10.1241  10.4106  11.3392
    12.1752  13.3933  14.6186  16.2531

          k = 0.5000 0.2165-0.0673 (  4394 PWs)   bands (ev):

   -99.0505 -98.1462 -98.0329 -97.6028 -50.6294 -50.3387 -50.2212 -49.5365
   -49.4928 -49.4203 -49.4158 -49.3170 -49.3128 -49.0182 -48.9027 -48.8094
   -16.5020  -2.8655  -1.2355  -0.5202   0.4145   0.5306   0.9057   1.0337
     1.1844   1.4638   1.7600   2.5060   2.6012   2.9780   3.4423   3.8327
     4.2274   4.5314   4.7886   5.2744   5.4139   5.4759   5.7352   5.9777
     6.2420   6.7966   7.8031   8.4534   9.5746  10.1234  10.4116  11.3391
    12.1751  13.3931  14.6188  16.2531

          k = 0.4375-0.1804-0.0673 (  4416 PWs)   bands (ev):

   -99.0510 -98.1468 -98.0335 -97.6034 -50.6310 -50.3269 -50.2178 -49.5248
   -49.4921 -49.4144 -49.4092 -49.3174 -49.3094 -49.0066 -48.8993 -48.8105
   -16.5392  -3.0209  -1.0870  -0.5116   0.4428   0.6037   0.9500   1.0756
     1.2647   1.5462   1.8287   2.5310   2.6780   3.0205   3.3773   3.6965
     3.9574   4.3450   4.5848   4.9837   5.2231   5.3372   5.4649   5.7566
     5.8198   6.2634   6.8586   8.1074   9.1768  10.4651  11.2906  11.7221
    12.8978  14.3886  15.2782  16.2445

          k =-0.3750-0.2887-0.0673 (  4416 PWs)   bands (ev):

   -99.0510 -98.1468 -98.0335 -97.6034 -50.6310 -50.3269 -50.2178 -49.5248
   -49.4921 -49.4144 -49.4093 -49.3174 -49.3094 -49.0066 -48.8993 -48.8105
   -16.5392  -3.0209  -1.0870  -0.5116   0.4429   0.6037   0.9499   1.0757
     1.2647   1.5463   1.8287   2.5314   2.6775   3.0206   3.3774   3.6962
     3.9576   4.3453   4.5847   4.9836   5.2231   5.3371   5.4649   5.7567
     5.8198   6.2633   6.8586   8.1075   9.1770  10.4648  11.2904  11.7221
    12.8979  14.3887  15.2782  16.2443

          k = 0.3125-0.1083-0.0673 (  4460 PWs)   bands (ev):

   -99.0535 -98.1493 -98.0360 -97.6059 -50.6378 -50.2763 -50.2034 -49.4968
   -49.4727 -49.3986 -49.3660 -49.3192 -49.2952 -48.9567 -48.8849 -48.8154
   -16.6941  -3.5517  -0.9100  -0.2431   0.2546   0.6836   1.1521   1.2604
     1.5876   1.8208   2.1106   2.4252   2.6690   2.8417   2.9436   3.2565
     3.4618   3.7229   3.8896   4.0662   4.4081   4.4721   4.8048   5.0045
     5.2816   5.4576   5.6505   7.4118   9.2341  10.0390  10.7457  12.8895
    14.4622  14.7674  16.0454  16.2659

          k =-0.2500-0.2165-0.0673 (  4460 PWs)   bands (ev):

   -99.0535 -98.1493 -98.0360 -97.6059 -50.6378 -50.2763 -50.2034 -49.4968
   -49.4727 -49.3986 -49.3660 -49.3192 -49.2952 -48.9567 -48.8849 -48.8154
   -16.6941  -3.5517  -0.9100  -0.2431   0.2547   0.6836   1.1520   1.2604
     1.5876   1.8209   2.1106   2.4252   2.6692   2.8417   2.9432   3.2567
     3.4619   3.7230   3.8896   4.0662   4.4081   4.4720   4.8047   5.0044
     5.2817   5.4578   5.6504   7.4120   9.2342  10.0394  10.7449  12.8898
    14.4622  14.7675  16.0454  16.2659

          k = 0.1875-0.0361-0.0673 (  4490 PWs)   bands (ev):

   -99.0564 -98.1523 -98.0389 -97.6089 -50.6458 -50.2162 -50.1864 -49.5055
   -49.4122 -49.3808 -49.3243 -49.3067 -49.2783 -48.8972 -48.8678 -48.8212
   -16.8693  -4.0717  -1.3118  -0.7393  -0.0280   0.4269   1.0999   1.1914
     1.4974   2.0283   2.3841   2.5036   2.8138   2.8631   2.9598   3.0660
     3.3721   3.4221   3.6025   3.6915   3.8965   4.0860   4.4067   4.5994
     4.7988   5.2138   5.5487   6.3569   8.6696  10.3225  11.0835  11.8164
    13.2281  13.4540  15.1702  15.6761

          k =-0.1250-0.1443-0.0673 (  4490 PWs)   bands (ev):

   -99.0564 -98.1523 -98.0389 -97.6089 -50.6458 -50.2162 -50.1864 -49.5055
   -49.4122 -49.3808 -49.3243 -49.3067 -49.2783 -48.8972 -48.8678 -48.8212
   -16.8693  -4.0717  -1.3118  -0.7393  -0.0280   0.4269   1.0999   1.1914
     1.4973   2.0283   2.3841   2.5038   2.8138   2.8633   2.9597   3.0660
     3.3721   3.4222   3.6025   3.6916   3.8961   4.0860   4.4067   4.5995
     4.7988   5.2138   5.5487   6.3570   8.6697  10.3225  11.0827  11.8171
    13.2281  13.4540  15.1703  15.6760

          k = 0.0000-0.0722-0.0673 (  4520 PWs)   bands (ev):

   -99.0580 -98.1540 -98.0406 -97.6105 -50.6504 -50.1817 -50.1769 -49.5114
   -49.3763 -49.3709 -49.3268 -49.2735 -49.2687 -48.8630 -48.8583 -48.8246
   -16.9652  -4.3485  -1.8260  -1.0252  -0.5256  -0.0185   0.6109   1.5438
     1.6396   2.3331   2.4736   2.7106   2.8185   2.8587   3.0194   3.1560
     3.1746   3.5441   3.6329   3.7453   3.7609   4.0527   4.5136   4.5472
     4.9949   5.1962   5.5388   5.6104   7.4938  11.0070  11.2842  11.3664
    12.6549  12.9072  14.6489  15.1013

          k = 0.3750 0.0000-0.0673 (  4450 PWs)   bands (ev):

   -99.0525 -98.1484 -98.0350 -97.6050 -50.6351 -50.2866 -50.2185 -49.4947
   -49.4820 -49.4153 -49.3745 -49.3180 -49.3101 -48.9669 -48.8998 -48.8134
   -16.6353  -3.3660  -0.8643  -0.2218   0.5543   0.9317   1.1289   1.4998
     1.7382   1.9658   2.0860   2.1813   2.4063   2.6991   2.8077   2.9422
     3.2515   3.7096   3.8388   4.1857   4.4190   4.8849   4.9244   5.4230
     5.5707   5.7876   6.1959   7.9336   9.1236  10.3006  10.5411  13.4502
    14.9927  15.3441  15.8975  16.3189

          k =-0.3125 0.3969-0.0673 (  4428 PWs)   bands (ev):

   -99.0505 -98.1462 -98.0329 -97.6028 -50.6294 -50.3174 -50.2428 -49.5152
   -49.4885 -49.4400 -49.4019 -49.3341 -49.3159 -48.9974 -48.9240 -48.8093
   -16.5033  -2.8970  -0.9279  -0.4356   0.5066   0.8430   1.0483   1.4446
     1.7013   1.8034   2.2395   2.3764   2.4759   2.7752   3.0807   3.3016
     3.5356   3.8624   4.2009   4.3621   4.7784   5.0681   5.5058   5.8477
     6.1014   7.2311   7.9281   8.7282   9.7010  10.0779  11.8714  12.2747
    13.1385  14.2911  15.2543  15.7855

          k = 0.5000 0.0722-0.0673 (  4428 PWs)   bands (ev):

   -99.0505 -98.1462 -98.0329 -97.6028 -50.6294 -50.3174 -50.2428 -49.5152
   -49.4885 -49.4400 -49.4019 -49.3341 -49.3159 -48.9974 -48.9240 -48.8093
   -16.5033  -2.8970  -0.9279  -0.4356   0.5066   0.8430   1.0483   1.4445
     1.7012   1.8034   2.2398   2.3762   2.4762   2.7753   3.0805   3.3016
     3.5358   3.8622   4.2009   4.3621   4.7783   5.0682   5.5058   5.8476
     6.1015   7.2311   7.9279   8.7282   9.6992  10.0799  11.8710  12.2749
    13.1382  14.2911  15.2547  15.7859

          k =-0.4375 0.4691-0.0673 (  4432 PWs)   bands (ev):

   -99.0500 -98.1457 -98.0324 -97.6023 -50.6280 -50.3243 -50.2488 -49.5220
   -49.4882 -49.4457 -49.4080 -49.3399 -49.3155 -49.0041 -48.9300 -48.8083
   -16.4717  -2.7658  -0.9884  -0.4651   0.4054   0.8394   0.9727   1.4315
     1.6672   1.7261   2.2484   2.3017   2.4049   2.9383   3.2541   3.4393
     3.6733   3.8554   4.4326   4.5509   4.9878   5.2596   5.4775   5.7573
     6.3368   7.5574   8.7410   9.5019   9.7610  10.3785  11.0285  11.7030
    12.7636  13.5527  14.5558  15.9469

          k = 0.6250 0.1443-0.0673 (  4432 PWs)   bands (ev):

   -99.0500 -98.1457 -98.0324 -97.6023 -50.6280 -50.3243 -50.2488 -49.5220
   -49.4882 -49.4457 -49.4080 -49.3399 -49.3155 -49.0041 -48.9300 -48.8083
   -16.4717  -2.7658  -0.9884  -0.4651   0.4054   0.8394   0.9727   1.4315
     1.6673   1.7261   2.2483   2.3018   2.4048   2.9383   3.2542   3.4393
     3.6732   3.8556   4.4326   4.5509   4.9878   5.2595   5.4775   5.7574
     6.3367   7.5574   8.7410   9.5021   9.7609  10.3785  11.0282  11.7031
    12.7635  13.5535  14.5545  15.9478

          k = 0.4375-0.0361-0.0673 (  4450 PWs)   bands (ev):

   -99.0514 -98.1472 -98.0338 -97.6038 -50.6319 -50.3044 -50.2319 -49.5027
   -49.4892 -49.4293 -49.3904 -49.3237 -49.3165 -48.9845 -48.9132 -48.8111
   -16.5611  -3.1140  -0.8696  -0.3555   0.6932   0.7879   1.1620   1.4522
     1.7656   1.9427   2.1503   2.3273   2.5363   2.6516   2.7927   3.0455
     3.5347   3.6539   3.9454   4.2500   4.5476   4.9867   5.3664   5.7011
     5.8035   6.4584   7.0723   8.5061   9.1148   9.9847  11.2552  13.7779
    14.4800  14.8505  15.6134  15.9922

          k =-0.2500-0.3608-0.0673 (  4450 PWs)   bands (ev):

   -99.0514 -98.1472 -98.0338 -97.6038 -50.6319 -50.3044 -50.2319 -49.5027
   -49.4892 -49.4293 -49.3904 -49.3237 -49.3165 -48.9845 -48.9132 -48.8111
   -16.5611  -3.1140  -0.8696  -0.3555   0.6932   0.7878   1.1621   1.4523
     1.7656   1.9428   2.1501   2.3275   2.5364   2.6511   2.7928   3.0456
     3.5347   3.6539   3.9454   4.2501   4.5477   4.9866   5.3662   5.7014
     5.8033   6.4583   7.0724   8.5063   9.1156   9.9836  11.2553  13.7780
    14.4807  14.8501  15.6130  15.9922

          k = 0.3125 0.0361-0.0673 (  4452 PWs)   bands (ev):

   -99.0538 -98.1497 -98.0363 -97.6063 -50.6387 -50.2659 -50.2052 -49.4973
   -49.4623 -49.4009 -49.3559 -49.3192 -49.2970 -48.9464 -48.8866 -48.8160
   -16.7143  -3.6143  -0.9187  -0.1780   0.2910   0.7922   1.1809   1.3981
     1.7102   1.8576   2.1211   2.2726   2.3671   2.6961   2.9069   3.0976
     3.2540   3.6610   3.8402   3.9883   4.3215   4.4410   4.7267   4.9962
     5.3180   5.4437   5.6289   7.3398   9.4153   9.9505  10.6432  12.7710
    14.2976  14.6042  16.0902  16.6757

          k =-0.1250-0.2887-0.0673 (  4452 PWs)   bands (ev):

   -99.0538 -98.1497 -98.0363 -97.6063 -50.6387 -50.2659 -50.2052 -49.4973
   -49.4623 -49.4009 -49.3559 -49.3192 -49.2970 -48.9464 -48.8866 -48.8160
   -16.7143  -3.6143  -0.9187  -0.1780   0.2910   0.7922   1.1809   1.3981
     1.7101   1.8577   2.1212   2.2728   2.3671   2.6962   2.9066   3.0976
     3.2540   3.6611   3.8403   3.9882   4.3215   4.4410   4.7266   4.9962
     5.3180   5.4437   5.6288   7.3402   9.4153   9.9507  10.6421  12.7717
    14.2976  14.6044  16.0903  16.6749

          k = 0.0000-0.2165-0.0673 (  4480 PWs)   bands (ev):

   -99.0559 -98.1518 -98.0384 -97.6084 -50.6444 -50.2272 -50.1884 -49.5038
   -49.4235 -49.3827 -49.3254 -49.3159 -49.2802 -48.9081 -48.8698 -48.8202
   -16.8402  -3.9877  -1.1937  -0.6478   0.1160   0.4435   1.0430   1.3281
     1.4788   1.9508   2.3591   2.4867   2.7158   2.8909   2.9762   3.1454
     3.3361   3.4198   3.6853   3.7909   3.8143   4.1834   4.3869   4.5640
     4.9962   5.0562   5.6249   6.5343   8.9258  10.1082  11.0628  11.9610
    13.4081  13.6434  15.3321  15.8615

          k = 0.6250 0.0000-0.0673 (  4434 PWs)   bands (ev):

   -99.0495 -98.1453 -98.0320 -97.6019 -50.6268 -50.3026 -50.2824 -49.5002
   -49.4845 -49.4796 -49.3907 -49.3710 -49.3146 -48.9829 -48.9631 -48.8074
   -16.4439  -2.6668  -0.6091  -0.4095  -0.2361   1.1505   1.2577   1.8343
     1.8931   2.1970   2.2844   2.3858   2.5396   2.6700   2.8168   3.1788
     3.7068   3.8883   3.9550   4.2305   4.5903   5.2584   5.4197   5.5683
     6.2722   8.1766   8.7080   9.8426  10.8544  11.0025  11.1618  12.4598
    12.8439  13.5811  14.2322  15.1121

          k =-0.4375 0.6134-0.0673 (  4444 PWs)   bands (ev):

   -99.0498 -98.1456 -98.0323 -97.6022 -50.6277 -50.3131 -50.2631 -49.5108
   -49.4862 -49.4605 -49.3989 -49.3536 -49.3150 -48.9932 -48.9441 -48.8081
   -16.4649  -2.7491  -0.8167  -0.4177   0.1221   1.0118   1.2127   1.7053
     1.7877   2.1260   2.2244   2.3208   2.5318   2.6679   2.9731   3.1801
     3.6427   3.8511   4.0534   4.2491   4.6684   5.1412   5.4797   5.7602
     6.2771   7.8179   8.7610   9.1888   9.7827  11.1391  11.5257  12.2513
    13.1659  13.4604  14.5684  15.2315

          k = 0.7500 0.0722-0.0673 (  4444 PWs)   bands (ev):

   -99.0498 -98.1456 -98.0323 -97.6022 -50.6277 -50.3131 -50.2632 -49.5108
   -49.4862 -49.4605 -49.3989 -49.3536 -49.3150 -48.9932 -48.9441 -48.8081
   -16.4649  -2.7491  -0.8167  -0.4177   0.1220   1.0119   1.2128   1.7053
     1.7877   2.1260   2.2242   2.3208   2.5322   2.6675   2.9731   3.1803
     3.6427   3.8510   4.0534   4.2491   4.6684   5.1412   5.4797   5.7602
     6.2770   7.8180   8.7609   9.1890   9.7825  11.1386  11.5263  12.2511
    13.1656  13.4607  14.5680  15.2322

          k = 0.4375 0.1083-0.0673 (  4428 PWs)   bands (ev):

   -99.0512 -98.1470 -98.0337 -97.6036 -50.6316 -50.3145 -50.2247 -49.5124
   -49.4906 -49.4216 -49.3993 -49.3176 -49.3157 -48.9944 -48.9061 -48.8109
   -16.5533  -3.0814  -0.9505  -0.4468   0.6244   0.8202   0.8947   1.2115
     1.5158   1.7052   2.0425   2.4406   2.6654   2.8964   3.1824   3.2871
     3.6058   3.9404   4.3453   4.4567   4.7915   5.1499   5.3141   5.7109
     5.7878   6.3824   6.9794   8.3259   9.1123  10.2182  11.2679  12.7619
    13.8331  14.6975  15.6156  16.0481

          k =-0.1250-0.4330-0.0673 (  4428 PWs)   bands (ev):

   -99.0512 -98.1470 -98.0337 -97.6036 -50.6316 -50.3144 -50.2248 -49.5124
   -49.4906 -49.4216 -49.3993 -49.3176 -49.3157 -48.9944 -48.9061 -48.8109
   -16.5533  -3.0814  -0.9505  -0.4468   0.6242   0.8205   0.8944   1.2117
     1.5159   1.7052   2.0426   2.4406   2.6649   2.8965   3.1823   3.2871
     3.6057   3.9405   4.3453   4.4567   4.7916   5.1499   5.3141   5.7109
     5.7878   6.3824   6.9795   8.3265   9.1118  10.2178  11.2678  12.7619
    13.8341  14.6971  15.6159  16.0481

          k = 0.0000-0.3608-0.0673 (  4442 PWs)   bands (ev):

   -99.0529 -98.1487 -98.0354 -97.6053 -50.6361 -50.2911 -50.2046 -49.4966
   -49.4866 -49.3994 -49.3799 -49.3188 -49.2963 -48.9713 -48.8861 -48.8142
   -16.6565  -3.4323  -0.9062  -0.3480   0.2860   0.6295   1.0442   1.2592
     1.4445   1.7143   2.0106   2.6661   2.8212   2.9053   3.1221   3.3022
     3.6750   3.8732   4.0469   4.3375   4.5452   4.8045   4.8633   5.0614
     5.3322   5.5517   5.6563   7.5960   9.0061  10.2594  10.7652  13.1286
    14.7454  15.0260  15.1695  16.0174

          k = 0.8750 0.0000-0.0673 (  4420 PWs)   bands (ev):

   -99.0502 -98.1459 -98.0326 -97.6026 -50.6286 -50.3344 -50.2329 -49.5322
   -49.4909 -49.4295 -49.4156 -49.3244 -49.3162 -49.0140 -48.9143 -48.8088
   -16.4847  -2.8037  -1.1582  -0.4969   0.6004   0.6704   0.7568   1.1576
     1.3646   1.5652   1.9405   2.4122   2.5004   3.1059   3.2203   3.8300
     3.8905   4.1638   4.6806   5.0245   5.2714   5.3646   5.6159   5.7953
     6.3925   7.1943   8.5690   9.1402   9.7896  10.0236  10.2821  11.5208
    12.1761  13.7420  14.1640  16.4701

          k = 0.0000-0.5052-0.0673 (  4396 PWs)   bands (ev):

   -99.0508 -98.1465 -98.0332 -97.6031 -50.6302 -50.3358 -50.2160 -49.5338
   -49.4931 -49.4175 -49.4112 -49.3174 -49.3077 -49.0154 -48.8975 -48.8100
   -16.5211  -2.9435  -1.2032  -0.5299   0.3545   0.5002   0.8751   1.1094
     1.1557   1.4435   1.7351   2.5462   2.6774   2.9323   3.5949   3.7093
     4.3248   4.5689   4.9231   5.0232   5.4451   5.6019   5.7657   5.8509
[...]
     4.0939   4.2710   4.6319   4.7405   4.9585   5.1145   5.3341   5.5423
     5.6623   5.8080   6.1529   7.7419   8.7339  10.0433  10.6594  13.1491
    14.2697  14.8818  15.1661  15.7371

          k = 0.3750 0.1443-0.0673 (  4438 PWs)   bands (ev):

   -98.5971 -97.9018 -97.8037 -97.4269 -50.0500 -49.8773 -49.7843 -49.2494
   -49.2136 -49.1596 -49.1543 -49.0701 -49.0607 -48.8108 -48.7182 -48.6132
   -17.1245  -2.7557  -1.0797  -0.1176   0.9016   0.9529   1.1827   1.4885
     1.8252   2.0302   2.3356   2.9085   3.2341   3.3580   3.5132   3.6817
     4.0938   4.2712   4.6319   4.7404   4.9585   5.1145   5.3341   5.5424
     5.6623   5.8079   6.1529   7.7420   8.7339  10.0433  10.6595  13.1490
    14.2697  14.8818  15.1661  15.7371

          k =-0.4375 0.3248-0.0673 (  4394 PWs)   bands (ev):

   -98.5955 -97.9002 -97.8021 -97.4253 -50.0457 -49.9109 -49.7939 -49.2832
   -49.2191 -49.1819 -49.1648 -49.0796 -49.0582 -48.8443 -48.7278 -48.6096
   -17.0233  -2.3821  -1.3474  -0.1871   0.7770   0.9345   1.0449   1.3676
     1.5852   1.8476   2.1134   2.7792   3.0680   3.2692   3.8887   4.2122
     4.4871   4.8099   5.0944   5.4067   5.5235   5.7060   5.9026   6.1189
     6.2563   6.9655   8.0012   8.6131   9.6425  10.1185  10.4777  11.2970
    12.0827  12.9831  14.1940  15.9112

          k = 0.5000 0.2165-0.0673 (  4394 PWs)   bands (ev):

   -98.5955 -97.9002 -97.8021 -97.4253 -50.0457 -49.9109 -49.7939 -49.2832
   -49.2191 -49.1819 -49.1648 -49.0796 -49.0582 -48.8443 -48.7278 -48.6096
   -17.0233  -2.3821  -1.3474  -0.1871   0.7770   0.9345   1.0449   1.3676
     1.5851   1.8476   2.1134   2.7792   3.0679   3.2692   3.8887   4.2122
     4.4871   4.8099   5.0944   5.4067   5.5235   5.7060   5.9026   6.1189
     6.2563   6.9655   8.0012   8.6131   9.6425  10.1185  10.4778  11.2970
    12.0827  12.9831  14.1940  15.9112

          k = 0.4375-0.1804-0.0673 (  4416 PWs)   bands (ev):

   -98.5961 -97.9008 -97.8027 -97.4258 -50.0472 -49.8992 -49.7905 -49.2713
   -49.2155 -49.1757 -49.1613 -49.0763 -49.0591 -48.8326 -48.7244 -48.6109
   -17.0592  -2.5245  -1.2326  -0.1737   0.8206   0.9718   1.1013   1.4131
     1.6698   1.9138   2.1921   2.8282   3.1427   3.3140   3.7959   4.1026
     4.2809   4.6409   4.8713   5.2013   5.4365   5.4646   5.6183   5.8376
     5.9536   6.4466   7.0024   8.0758   8.9477  10.5348  10.8386  11.9269
    12.9114  14.1977  15.0569  16.0375

          k =-0.3750-0.2887-0.0673 (  4416 PWs)   bands (ev):

   -98.5961 -97.9008 -97.8027 -97.4258 -50.0472 -49.8992 -49.7905 -49.2713
   -49.2155 -49.1757 -49.1613 -49.0763 -49.0591 -48.8326 -48.7244 -48.6109
   -17.0592  -2.5245  -1.2326  -0.1737   0.8206   0.9719   1.1012   1.4131
     1.6698   1.9138   2.1921   2.8281   3.1429   3.3140   3.7959   4.1028
     4.2807   4.6408   4.8714   5.2013   5.4365   5.4646   5.6183   5.8376
     5.9537   6.4466   7.0024   8.0758   8.9477  10.5348  10.8386  11.9269
    12.9114  14.1977  15.0569  16.0375

          k = 0.3125-0.1083-0.0673 (  4460 PWs)   bands (ev):

   -98.5985 -97.9033 -97.8052 -97.4283 -50.0537 -49.8487 -49.7761 -49.2214
   -49.2147 -49.1471 -49.1326 -49.0629 -49.0619 -48.7823 -48.7100 -48.6163
   -17.2083  -3.0253  -0.9886   0.0165   0.7200   1.0094   1.1822   1.5440
     2.0071   2.1519   2.5247   2.8017   3.0468   3.1772   3.4226   3.5058
     3.7600   4.0433   4.2337   4.3999   4.5223   4.7823   5.0369   5.1907
     5.4021   5.5195   5.6624   7.1806   9.1728   9.4723  10.8169  12.4344
    14.2554  14.5067  15.8266  16.3492

          k =-0.2500-0.2165-0.0673 (  4460 PWs)   bands (ev):

   -98.5985 -97.9033 -97.8052 -97.4283 -50.0537 -49.8487 -49.7761 -49.2214
   -49.2147 -49.1471 -49.1326 -49.0629 -49.0619 -48.7823 -48.7100 -48.6163
   -17.2083  -3.0253  -0.9886   0.0165   0.7200   1.0094   1.1822   1.5440
     2.0071   2.1519   2.5247   2.8017   3.0467   3.1772   3.4227   3.5057
     3.7599   4.0433   4.2338   4.3999   4.5224   4.7823   5.0369   5.1907
     5.4021   5.5194   5.6624   7.1806   9.1728   9.4723  10.8168  12.4344
    14.2554  14.5067  15.8266  16.3492

          k = 0.1875-0.0361-0.0673 (  4490 PWs)   bands (ev):

   -98.6014 -97.9062 -97.8081 -97.4313 -50.0614 -49.7887 -49.7591 -49.2233
   -49.1599 -49.1296 -49.0748 -49.0674 -49.0449 -48.7224 -48.6929 -48.6229
   -17.3772  -3.5298  -1.1537  -0.3750   0.4428   0.7284   1.0667   1.2433
     1.4972   2.4818   2.7338   2.8897   3.1486   3.1832   3.3757   3.5220
     3.5696   3.6551   3.9327   3.9789   4.1977   4.3426   4.6299   4.8062
     4.9736   5.3386   5.6201   6.2801   8.3605  10.3395  11.0980  11.1701
    13.0081  13.2173  14.7296  15.5287

          k =-0.1250-0.1443-0.0673 (  4490 PWs)   bands (ev):

   -98.6014 -97.9062 -97.8081 -97.4313 -50.0614 -49.7887 -49.7591 -49.2233
   -49.1599 -49.1296 -49.0748 -49.0674 -49.0449 -48.7224 -48.6929 -48.6229
   -17.3772  -3.5298  -1.1537  -0.3750   0.4428   0.7284   1.0668   1.2433
     1.4971   2.4818   2.7338   2.8896   3.1486   3.1832   3.3757   3.5220
     3.5695   3.6552   3.9326   3.9788   4.1979   4.3426   4.6299   4.8061
     4.9736   5.3386   5.6201   6.2801   8.3605  10.3396  11.0972  11.1709
    13.0081  13.2173  14.7296  15.5287

          k = 0.0000-0.0722-0.0673 (  4520 PWs)   bands (ev):

   -98.6031 -97.9079 -97.8097 -97.4329 -50.0658 -49.7544 -49.7496 -49.2283
   -49.1248 -49.1198 -49.0714 -49.0401 -49.0354 -48.6881 -48.6833 -48.6266
   -17.4698  -3.7992  -1.4927  -0.8178  -0.0609   0.3263   0.8864   1.3050
     1.3771   2.7702   2.9249   2.9368   3.1703   3.2499   3.3186   3.4198
     3.5121   3.7861   3.9100   4.0911   4.1260   4.2071   4.7934   4.8175
     5.2341   5.3684   5.6016   5.6927   7.3795  10.3308  11.2624  11.3755
    12.4481  12.6629  14.1581  14.9592

          k = 0.3750 0.0000-0.0673 (  4450 PWs)   bands (ev):

   -98.5976 -97.9023 -97.8042 -97.4274 -50.0512 -49.8589 -49.7911 -49.2310
   -49.2129 -49.1632 -49.1415 -49.0770 -49.0611 -48.7925 -48.7250 -48.6142
   -17.1517  -2.8477  -0.9762   0.0393   0.7273   1.1133   1.6615   1.9957
     2.1400   2.3450   2.4821   2.5645   2.7616   3.0224   3.1925   3.3207
     3.4839   3.8513   4.0471   4.4979   4.6581   5.0543   5.1959   5.5418
     5.6864   5.9146   6.3031   7.7111   9.0569   9.9186  10.3521  13.0875
    14.7905  15.0573  15.9749  16.4493

          k =-0.3125 0.3969-0.0673 (  4428 PWs)   bands (ev):

   -98.5955 -97.9002 -97.8021 -97.4253 -50.0457 -49.8898 -49.8154 -49.2618
   -49.2114 -49.1874 -49.1680 -49.1009 -49.0577 -48.8233 -48.7493 -48.6095
   -17.0246  -2.4117  -1.0731  -0.0873   0.3480   1.4049   1.5863   1.9089
     2.1452   2.2114   2.5907   2.7944   2.9272   3.1849   3.4377   3.5938
     3.7609   4.1231   4.4155   4.5588   4.9080   5.1243   5.5893   5.9271
     6.1535   7.4584   8.0768   8.7240   9.7397   9.9075  11.6701  12.2906
    13.1888  14.3300  15.1040  15.6477

          k = 0.5000 0.0722-0.0673 (  4428 PWs)   bands (ev):

   -98.5955 -97.9002 -97.8021 -97.4253 -50.0457 -49.8898 -49.8154 -49.2618
   -49.2114 -49.1874 -49.1680 -49.1009 -49.0577 -48.8233 -48.7493 -48.6095
   -17.0246  -2.4117  -1.0731  -0.0873   0.3480   1.4049   1.5863   1.9089
     2.1452   2.2114   2.5906   2.7947   2.9268   3.1849   3.4379   3.5937
     3.7607   4.1232   4.4155   4.5588   4.9080   5.1242   5.5894   5.9271
     6.1535   7.4583   8.0768   8.7240   9.7394   9.9079  11.6700  12.2906
    13.1887  14.3300  15.1041  15.6479

          k =-0.4375 0.4691-0.0673 (  4432 PWs)   bands (ev):

   -98.5950 -97.8997 -97.8016 -97.4248 -50.0444 -49.8966 -49.8214 -49.2687
   -49.2122 -49.1931 -49.1731 -49.1068 -49.0570 -48.8301 -48.7553 -48.6085
   -16.9942  -2.2943  -1.1100  -0.1347   0.2773   1.3986   1.5100   1.8876
     2.0880   2.1734   2.5607   2.7255   2.8668   3.3711   3.4612   3.7972
     3.9499   4.1401   4.6481   4.7468   5.0962   5.3491   5.5453   5.8176
     6.2785   7.6873   8.9941   9.6059   9.8420  10.5612  11.0269  11.6697
    12.6760  13.2490  14.3184  15.8829

          k = 0.6250 0.1443-0.0673 (  4432 PWs)   bands (ev):

   -98.5950 -97.8997 -97.8016 -97.4248 -50.0444 -49.8966 -49.8214 -49.2687
   -49.2122 -49.1931 -49.1731 -49.1068 -49.0570 -48.8301 -48.7553 -48.6085
   -16.9942  -2.2943  -1.1100  -0.1347   0.2773   1.3986   1.5100   1.8876
     2.0880   2.1733   2.5608   2.7253   2.8670   3.3711   3.4611   3.7972
     3.9499   4.1400   4.6481   4.7469   5.0962   5.3491   5.5453   5.8176
     6.2785   7.6873   8.9941   9.6059   9.8420  10.5612  11.0268  11.6697
    12.6760  13.2492  14.3180  15.8832

          k = 0.4375-0.0361-0.0673 (  4450 PWs)   bands (ev):

   -98.5964 -97.9011 -97.8030 -97.4262 -50.0481 -49.8768 -49.8045 -49.2488
   -49.2114 -49.1769 -49.1572 -49.0902 -49.0592 -48.8103 -48.7384 -48.6116
   -17.0802  -2.6107  -1.0198  -0.0279   0.5062   1.3597   1.6990   1.9343
     2.2008   2.3392   2.5700   2.6977   2.9159   3.0889   3.1542   3.3794
     3.7206   3.8577   4.1341   4.4739   4.7459   5.0661   5.5349   5.8174
     5.9026   6.6707   7.2027   8.4267   8.9219  10.0201  10.6803  13.8111
    14.4355  14.9262  15.5739  15.9228

          k =-0.2500-0.3608-0.0673 (  4450 PWs)   bands (ev):

   -98.5964 -97.9011 -97.8030 -97.4262 -50.0481 -49.8768 -49.8045 -49.2488
   -49.2114 -49.1769 -49.1572 -49.0902 -49.0592 -48.8103 -48.7384 -48.6116
   -17.0802  -2.6107  -1.0198  -0.0279   0.5062   1.3597   1.6990   1.9343
     2.2009   2.3392   2.5702   2.6977   2.9158   3.0889   3.1544   3.3793
     3.7206   3.8578   4.1342   4.4738   4.7459   5.0661   5.5349   5.8174
     5.9026   6.6707   7.2027   8.4266   8.9219  10.0200  10.6803  13.8112
    14.4356  14.9261  15.5741  15.9226

          k = 0.3125 0.0361-0.0673 (  4452 PWs)   bands (ev):

   -98.5989 -97.9036 -97.8055 -97.4287 -50.0546 -49.8383 -49.7779 -49.2169
   -49.2092 -49.1491 -49.1225 -49.0640 -49.0630 -48.7720 -48.7117 -48.6171
   -17.2278  -3.0857  -0.9708   0.1088   0.7028   0.9533   1.3128   1.7543
     2.1590   2.2462   2.4879   2.6156   2.7644   3.0013   3.3024   3.4182
     3.5504   3.8502   4.1673   4.2871   4.5832   4.7462   4.9485   5.1886
     5.4453   5.5210   5.6434   7.1188   9.2662   9.5112  10.7054  12.2833
    14.0870  14.3432  15.7352  16.5913

          k =-0.1250-0.2887-0.0673 (  4452 PWs)   bands (ev):

   -98.5989 -97.9036 -97.8055 -97.4287 -50.0546 -49.8384 -49.7779 -49.2169
   -49.2092 -49.1492 -49.1225 -49.0640 -49.0630 -48.7720 -48.7117 -48.6171
   -17.2278  -3.0857  -0.9708   0.1088   0.7028   0.9533   1.3128   1.7543
     2.1591   2.2462   2.4878   2.6156   2.7644   3.0013   3.3024   3.4182
     3.5505   3.8501   4.1675   4.2872   4.5831   4.7462   4.9485   5.1886
     5.4453   5.5210   5.6434   7.1187   9.2662   9.5112  10.7054  12.2834
    14.0870  14.3432  15.7352  16.5913

          k = 0.0000-0.2165-0.0673 (  4480 PWs)   bands (ev):

   -98.6010 -97.9057 -97.8076 -97.4308 -50.0601 -49.7998 -49.7611 -49.2219
   -49.1710 -49.1315 -49.0855 -49.0668 -49.0469 -48.7335 -48.6949 -48.6218
   -17.3491  -3.4480  -1.0929  -0.2364   0.5416   0.6993   1.1569   1.2242
     1.6375   2.4157   2.7035   2.8635   3.0835   3.2073   3.4451   3.4916
     3.6251   3.6540   4.0004   4.0409   4.1731   4.4400   4.5684   4.7616
     5.1381   5.1987   5.6782   6.4240   8.5605  10.1341  11.1456  11.2686
    13.1890  13.4041  14.9070  15.7134

          k = 0.6250 0.0000-0.0673 (  4434 PWs)   bands (ev):

   -98.5946 -97.8992 -97.8011 -97.4243 -50.0432 -49.8750 -49.8549 -49.2470
   -49.2269 -49.2069 -49.1573 -49.1384 -49.0560 -48.8086 -48.7887 -48.6075
   -16.9674  -2.2085  -0.7398  -0.3849  -0.0117   1.7415   1.8637   2.3526
     2.4272   2.6549   2.6846   2.8166   2.9450   3.0215   3.2054   3.4713
     3.8904   4.0708   4.1265   4.3454   4.6443   5.3407   5.4860   5.6222
     6.1964   8.2701   8.7586  10.0541  10.9165  11.1833  11.2674  12.5465
    12.8829  13.5834  14.1562  15.0301

          k =-0.4375 0.6134-0.0673 (  4444 PWs)   bands (ev):

   -98.5949 -97.8996 -97.8015 -97.4246 -50.0441 -49.8855 -49.8357 -49.2575
   -49.2097 -49.2070 -49.1652 -49.1206 -49.0566 -48.8191 -48.7695 -48.6082
   -16.9876  -2.2799  -0.9496  -0.1059   0.0334   1.5838   1.7960   2.2031
     2.2805   2.5210   2.6687   2.7679   2.9066   3.0669   3.3521   3.4733
     3.8171   4.0444   4.2526   4.4047   4.7658   5.2093   5.5468   5.8167
     6.2397   7.9605   8.9597   9.2337   9.8280  11.0962  11.6364  12.3485
    13.1981  13.3068  14.5160  15.0503

          k = 0.7500 0.0722-0.0673 (  4444 PWs)   bands (ev):

   -98.5949 -97.8996 -97.8015 -97.4246 -50.0441 -49.8855 -49.8357 -49.2575
   -49.2097 -49.2070 -49.1652 -49.1206 -49.0566 -48.8191 -48.7695 -48.6082
   -16.9876  -2.2799  -0.9496  -0.1059   0.0334   1.5839   1.7959   2.2031
     2.2805   2.5211   2.6689   2.7678   2.9063   3.0671   3.3520   3.4732
     3.8172   4.0445   4.2526   4.4047   4.7658   5.2093   5.5467   5.8166
     6.2398   7.9604   8.9596   9.2338   9.8280  11.0960  11.6367  12.3483
    13.1981  13.3070  14.5159  15.0506

          k = 0.4375 0.1083-0.0673 (  4428 PWs)   bands (ev):

   -98.5963 -97.9010 -97.8029 -97.4261 -50.0478 -49.8868 -49.7974 -49.2589
   -49.2128 -49.1708 -49.1642 -49.0832 -49.0592 -48.8203 -48.7313 -48.6113
   -17.0727  -2.5804  -1.1080  -0.1117   0.6672   1.1761   1.3642   1.6511
     1.9084   2.1269   2.3662   2.8325   3.1257   3.2856   3.5003   3.6033
     3.9475   4.2361   4.5613   4.7150   4.9077   5.2372   5.5111   5.7964
     5.9068   6.5876   7.1157   8.2701   8.8882  10.2702  10.7272  12.9660
    13.8091  14.5413  15.5406  15.8512

          k =-0.1250-0.4330-0.0673 (  4428 PWs)   bands (ev):

   -98.5963 -97.9010 -97.8029 -97.4261 -50.0478 -49.8868 -49.7974 -49.2589
   -49.2128 -49.1708 -49.1642 -49.0832 -49.0592 -48.8203 -48.7313 -48.6113
   -17.0727  -2.5804  -1.1080  -0.1117   0.6672   1.1763   1.3641   1.6510
     1.9082   2.1270   2.3661   2.8325   3.1260   3.2856   3.5001   3.6035
     3.9475   4.2361   4.5613   4.7151   4.9077   5.2372   5.5110   5.7964
     5.9069   6.5876   7.1157   8.2701   8.8881  10.2702  10.7272  12.9661
    13.8094  14.5410  15.5408  15.8512

          k = 0.0000-0.3608-0.0673 (  4442 PWs)   bands (ev):

   -98.5979 -97.9026 -97.8045 -97.4277 -50.0521 -49.8635 -49.7773 -49.2356
   -49.2144 -49.1480 -49.1466 -49.0631 -49.0620 -48.7970 -48.7112 -48.6150
   -17.1720  -2.9107  -1.0282  -0.0767   0.7970   1.0169   1.1097   1.4477
     1.8719   2.0223   2.4233   2.9742   3.2234   3.4083   3.4257   3.6167
     4.1245   4.1614   4.4697   4.5294   4.8651   4.8754   5.1101   5.2657
     5.4895   5.5324   5.6838   7.3560   8.9298   9.6510  10.8416  12.7459
    14.5807  14.8073  15.2734  15.9682

          k = 0.8750 0.0000-0.0673 (  4420 PWs)   bands (ev):

   -98.5952 -97.8999 -97.8018 -97.4250 -50.0450 -49.9067 -49.8056 -49.2789
   -49.2165 -49.1803 -49.1759 -49.0912 -49.0576 -48.8401 -48.7395 -48.6089
   -17.0067  -2.3272  -1.2691  -0.1624   0.5593   1.1550   1.2012   1.5845
     1.7505   2.0139   2.2467   2.7702   2.9720   3.3286   3.6496   4.1912
     4.1978   4.4866   4.9314   5.1672   5.3971   5.5326   5.7125   5.8897
     6.3219   7.3447   8.8654   9.3892   9.9617  10.0644  10.2285  11.4496
    12.0904  13.3915  13.6687  16.2816

          k = 0.0000-0.5052-0.0673 (  4396 PWs)   bands (ev):

   -98.5958 -97.9005 -97.8024 -97.4256 -50.0465 -49.9082 -49.7887 -49.2804
   -49.2184 -49.1807 -49.1596 -49.0745 -49.0588 -48.8415 -48.7227 -48.6103
   -17.0418  -2.4532  -1.3285  -0.1958   0.8682   0.8757   1.0014   1.3037
     1.5648   1.7980   2.1106   2.7978   3.1175   3.2767   4.0662   4.0721
     4.5501   4.8643   5.2207   5.3003   5.5409   5.8535   5.8893   5.9630
     6.2874   6.4543   7.2306   8.0529   9.1943  10.6320  10.7109  11.3418
    12.1822  13.4689  14.8659  15.6494

     the Fermi energy is     7.6837 ev

!    total energy              =   -1158.85854898 Ry
     Harris-Foulkes estimate   =   -1158.85854899 Ry
     estimated scf accuracy    <          8.8E-10 Ry

     The total energy is the sum of the following terms:

     one-electron contribution =   -5657.08381340 Ry
     hartree contribution      =    2834.06647546 Ry
     xc contribution           =    -113.24992342 Ry
     ewald contribution        =    1793.12496891 Ry
     one-center paw contrib.   =     -15.71532431 Ry
     smearing contrib. (-TS)   =      -0.00093222 Ry

     convergence has been achieved in  10 iterations

     Forces acting on atoms (Ry/au):


     negative rho (up, down):  1.245E-04 0.000E+00
     atom    1 type  1   force =     0.00000000    0.00000152   -0.00022472
     atom    2 type  1   force =     0.00000000    0.00000174    0.00020301
     atom    3 type  1   force =     0.00000000    0.00000577   -0.00059753
     atom    4 type  1   force =     0.00000000    0.00001785    0.00041338
     atom    5 type  2   force =     0.00000000   -0.00001105    0.00021023
     atom    6 type  3   force =     0.00000000   -0.00001583   -0.00000437

     Total force =     0.000815     Total SCF correction =     0.000215
     SCF correction compared to forces is large: reduce conv_thr to get better values

     bfgs converged in  17 scf cycles and  15 bfgs steps
     (criteria: energy <  1.0E-04, force <  1.0E-03)

     End of BFGS Geometry Optimization

     Final energy   =   -1158.8585489846 Ry
Begin final coordinates

ATOMIC_POSITIONS (alat)
Au      -0.000000000   0.000013061  -0.112539414
Au       0.500000000   0.288679924   0.758865685
Au       0.000000000   0.577341549   1.618965888
Au      -0.000000000  -0.000003134   2.449378509
C       -0.000000000   0.000355121   3.161759167
O        0.000001000   0.000638478   3.561127166
End final coordinates



     Writing output data file CO_Au_top.save

     init_run     :     35.94s CPU     30.14s WALL (       1 calls)
     electrons    :  20255.40s CPU  17058.33s WALL (      17 calls)
     update_pot   :     24.97s CPU     33.10s WALL (      16 calls)
     forces       :    353.05s CPU    263.53s WALL (      17 calls)

     Called by init_run:
     wfcinit      :     32.88s CPU     26.99s WALL (       1 calls)
     potinit      :      0.82s CPU      0.87s WALL (       1 calls)

     Called by electrons:
     c_bands      :  17724.79s CPU  14605.11s WALL (     176 calls)
     sum_band     :   2406.59s CPU   2296.70s WALL (     176 calls)
     v_of_rho     :     38.36s CPU     46.65s WALL (     188 calls)
     newd         :     69.04s CPU     90.87s WALL (     188 calls)
     mix_rho      :      3.24s CPU      4.05s WALL (     176 calls)

     Called by c_bands:
     init_us_2    :    212.90s CPU    208.94s WALL (   20072 calls)
     cegterg      :  16653.58s CPU  13587.81s WALL (    9152 calls)

     Called by *egterg:
     h_psi        :   9508.78s CPU   8989.68s WALL (   34819 calls)
     s_psi        :   1862.61s CPU   1058.04s WALL (   34819 calls)
     g_psi        :     39.48s CPU     26.40s WALL (   25615 calls)
     cdiaghg      :    611.71s CPU    648.32s WALL (   33675 calls)

     Called by h_psi:
     add_vuspsi   :   1873.62s CPU   1106.82s WALL (   34819 calls)

     General routines
     calbec       :   2901.30s CPU   2312.23s WALL (   45687 calls)
     fft          :     13.12s CPU     16.46s WALL (    3163 calls)
     ffts         :      1.05s CPU      1.07s WALL (     364 calls)
     fftw         :   5786.49s CPU   6339.74s WALL ( 2897172 calls)
     interpolate  :      4.08s CPU      4.41s WALL (     364 calls)
     davcio       :      0.09s CPU      0.62s WALL (      52 calls)

     Parallel routines
     fft_scatter  :    576.39s CPU    631.80s WALL ( 2900699 calls)

     PAW routines
     PAW_pot      :     25.19s CPU     30.61s WALL (     204 calls)
     PAW_symme    :      0.01s CPU      0.01s WALL (     380 calls)

     PWSCF        :     5h45m CPU        4h51m WALL


   This run was terminated on:   7: 9:39  18Jun2018            

=------------------------------------------------------------------------------=
   JOB DONE.
=------------------------------------------------------------------------------=
