
     Program PWSCF v.5.1 starts on 18Jun2018 at 23:59:45 

     This program is part of the open-source Quantum ESPRESSO suite
     for quantum simulation of materials; please cite
         "P. Giannozzi et al., J. Phys.:Condens. Matter 21 395502 (2009);
          URL http://www.quantum-espresso.org", 
     in publications or presentations arising from this work. More details at
     http://www.quantum-espresso.org/quote

     Parallel version (MPI), running on     1 processors
     Waiting for input...
     Reading input from standard input
Warning: card &CELL ignored
Warning: card / ignored

     Current dimensions of program PWSCF are:
     Max number of different atomic species (ntypx) = 10
     Max number of k-points (npk) =  40000
     Max angular momentum in pseudopotentials (lmaxx) =  3
               file C.pbe-n-kjpaw_psl.1.0.0.UPF: wavefunction(s)  2S 2P renormalized
               file O.pbe-n-kjpaw_psl.0.1.U: wavefunction(s)  2P renormalized

     Subspace diagonalization in iterative solution of the eigenvalue problem:
     a serial algorithm will be used


     G-vector sticks info
     --------------------
     sticks:   dense  smooth     PW     G-vecs:    dense   smooth      PW
     Sum         649     313    109               100611    35335    6935



     bravais-lattice index     =            4
     lattice parameter (alat)  =       5.4490  a.u.
     unit-cell volume          =    1040.6255 (a.u.)^3
     number of atoms/cell      =            6
     number of atomic types    =            3
     number of electrons       =        86.00
     number of Kohn-Sham states=           52
     kinetic-energy cutoff     =      40.0000  Ry
     charge density cutoff     =     320.0000  Ry
     convergence threshold     =      1.0E-06
     mixing beta               =       0.7000
     number of iterations used =            8  plain     mixing
     Exchange-correlation      =  SLA  PW   PBX  PBC ( 1  4  3  4 0)
     nstep                     =           50


     celldm(1)=   5.449000  celldm(2)=   0.000000  celldm(3)=   7.427000
     celldm(4)=   0.000000  celldm(5)=   0.000000  celldm(6)=   0.000000

     crystal axes: (cart. coord. in units of alat)
               a(1) = (   1.000000   0.000000   0.000000 )  
               a(2) = (  -0.500000   0.866025   0.000000 )  
               a(3) = (   0.000000   0.000000   7.427000 )  

     reciprocal axes: (cart. coord. in units 2 pi/alat)
               b(1) = (  1.000000  0.577350 -0.000000 )  
               b(2) = (  0.000000  1.154701  0.000000 )  
               b(3) = (  0.000000 -0.000000  0.134644 )  


     PseudoPot. # 1 for Au read from file:
     /home/oropebuen/Documents/Job/Absortion/SSSP_efficiency_pseudos/Au_ONCV_PBE-1.0.upf
     MD5 check sum: 1009843a674e36925f098327e430af60
     Pseudo is Norm-conserving, Zval = 19.0
     Generated using ONCVPSP code by D. R. Hamann
     Using radial grid of  602 points,  8 beta functions with: 
                l(1) =   0
                l(2) =   0
                l(3) =   1
                l(4) =   1
                l(5) =   2
                l(6) =   2
                l(7) =   3
                l(8) =   3

     PseudoPot. # 2 for  C read from file:
     /home/oropebuen/Documents/Job/Absortion/SSSP_efficiency_pseudos/C.pbe-n-kjpaw_psl.1.0.0.UPF
     MD5 check sum: 8e281b34a927efac7e739263a90d7aed
     Pseudo is Projector augmented-wave + core cor, Zval =  4.0
     Generated using "atomic" code by A. Dal Corso  v.5.1
     Shape of augmentation charge: PSQ
     Using radial grid of 1073 points,  4 beta functions with: 
                l(1) =   0
                l(2) =   0
                l(3) =   1
                l(4) =   1
     Q(r) pseudized with 0 coefficients 


     PseudoPot. # 3 for  O read from file:
     /home/oropebuen/Documents/Job/Absortion/SSSP_efficiency_pseudos/O.pbe-n-kjpaw_psl.0.1.U
     MD5 check sum: 3f94a2996a3169367d6eb21d9b593f20
     Pseudo is Projector augmented-wave + core cor, Zval =  6.0
     Generated using "atomic" code by A. Dal Corso  v.5.0.99 svn rev. 10869
     Shape of augmentation charge: BESSEL
     Using radial grid of 1095 points,  4 beta functions with: 
                l(1) =   0
                l(2) =   0
                l(3) =   1
                l(4) =   1
     Q(r) pseudized with 0 coefficients 


     atomic species   valence    mass     pseudopotential
        Au            19.00   196.96600     Au( 1.00)
        C              4.00    12.01070      C( 1.00)
        O              6.00    15.99940      O( 1.00)

      2 Sym. Ops. (no inversion) found



   Cartesian axes

     site n.     atom                  positions (alat units)
         1           Au  tau(   1) = (   0.0000000   0.0000000   0.0000000  )
         2           Au  tau(   2) = (   0.5000000   0.2886750   0.8164970  )
         3           Au  tau(   3) = (   0.0000000   0.5773500   1.6329930  )
         4           Au  tau(   4) = (   0.0000000   0.0000000   2.4494900  )
         5           C   tau(   5) = (   0.5000000   0.2886750   3.0737340  )
         6           O   tau(   6) = (   0.5000010   0.2896750   3.4648430  )

     number of k points=    52  gaussian smearing, width (Ry)=  0.0100
                       cart. coord. in units 2pi/alat
        k(    1) = (   0.0625000   0.1082532  -0.0673219), wk =   0.0416667
        k(    2) = (   0.0625000   0.2525907  -0.0673219), wk =   0.0416667
        k(    3) = (   0.0625000   0.3969283  -0.0673219), wk =   0.0416667
        k(    4) = (   0.0625000   0.5412659  -0.0673219), wk =   0.0416667
        k(    5) = (   0.0625000  -0.4690971  -0.0673219), wk =   0.0416667
        k(    6) = (   0.0625000  -0.3247595  -0.0673219), wk =   0.0416667
        k(    7) = (   0.0625000  -0.1804220  -0.0673219), wk =   0.0416667
        k(    8) = (   0.0625000  -0.0360844  -0.0673219), wk =   0.0416667
        k(    9) = (   0.1875000   0.3247595  -0.0673219), wk =   0.0416667
        k(   10) = (   0.1875000   0.4690971  -0.0673219), wk =   0.0416667
        k(   11) = (   0.1875000   0.6134347  -0.0673219), wk =   0.0416667
        k(   12) = (   0.1875000  -0.3969283  -0.0673219), wk =   0.0416667
        k(   13) = (   0.1875000  -0.2525907  -0.0673219), wk =   0.0416667
        k(   14) = (   0.1875000  -0.1082532  -0.0673219), wk =   0.0416667
        k(   15) = (   0.3125000   0.5412659  -0.0673219), wk =   0.0416667
        k(   16) = (   0.3125000   0.6856034  -0.0673219), wk =   0.0416667
        k(   17) = (   0.3125000  -0.3247595  -0.0673219), wk =   0.0416667
        k(   18) = (   0.3125000  -0.1804220  -0.0673219), wk =   0.0416667
        k(   19) = (   0.4375000   0.7577722  -0.0673219), wk =   0.0416667
        k(   20) = (   0.4375000  -0.2525907  -0.0673219), wk =   0.0416667
        k(   21) = (   0.1250000   0.0000000  -0.0673219), wk =   0.0208333
        k(   22) = (  -0.1875000   0.1804220  -0.0673219), wk =   0.0416667
        k(   23) = (   0.2500000   0.0721688  -0.0673219), wk =   0.0416667
        k(   24) = (  -0.3125000   0.2525907  -0.0673219), wk =   0.0416667
        k(   25) = (   0.3750000   0.1443376  -0.0673219), wk =   0.0416667
        k(   26) = (  -0.4375000   0.3247595  -0.0673219), wk =   0.0416667
        k(   27) = (   0.5000000   0.2165064  -0.0673219), wk =   0.0416667
        k(   28) = (   0.4375000  -0.1804220  -0.0673219), wk =   0.0416667
        k(   29) = (  -0.3750000  -0.2886751  -0.0673219), wk =   0.0416667
        k(   30) = (   0.3125000  -0.1082532  -0.0673219), wk =   0.0416667
        k(   31) = (  -0.2500000  -0.2165064  -0.0673219), wk =   0.0416667
        k(   32) = (   0.1875000  -0.0360844  -0.0673219), wk =   0.0416667
        k(   33) = (  -0.1250000  -0.1443376  -0.0673219), wk =   0.0416667
        k(   34) = (   0.0000000  -0.0721688  -0.0673219), wk =   0.0208333
        k(   35) = (   0.3750000   0.0000000  -0.0673219), wk =   0.0208333
        k(   36) = (  -0.3125000   0.3969283  -0.0673219), wk =   0.0416667
        k(   37) = (   0.5000000   0.0721688  -0.0673219), wk =   0.0416667
        k(   38) = (  -0.4375000   0.4690971  -0.0673219), wk =   0.0416667
        k(   39) = (   0.6250000   0.1443376  -0.0673219), wk =   0.0416667
        k(   40) = (   0.4375000  -0.0360844  -0.0673219), wk =   0.0416667
        k(   41) = (  -0.2500000  -0.3608439  -0.0673219), wk =   0.0416667
        k(   42) = (   0.3125000   0.0360844  -0.0673219), wk =   0.0416667
        k(   43) = (  -0.1250000  -0.2886751  -0.0673219), wk =   0.0416667
        k(   44) = (   0.0000000  -0.2165064  -0.0673219), wk =   0.0208333
        k(   45) = (   0.6250000   0.0000000  -0.0673219), wk =   0.0208333
        k(   46) = (  -0.4375000   0.6134347  -0.0673219), wk =   0.0416667
        k(   47) = (   0.7500000   0.0721688  -0.0673219), wk =   0.0416667
        k(   48) = (   0.4375000   0.1082532  -0.0673219), wk =   0.0416667
        k(   49) = (  -0.1250000  -0.4330127  -0.0673219), wk =   0.0416667
        k(   50) = (   0.0000000  -0.3608439  -0.0673219), wk =   0.0208333
        k(   51) = (   0.8750000   0.0000000  -0.0673219), wk =   0.0208333
        k(   52) = (   0.0000000  -0.5051815  -0.0673219), wk =   0.0208333

     Dense  grid:   100611 G-vectors     FFT dimensions: (  32,  32, 240)

     Smooth grid:    35335 G-vectors     FFT dimensions: (  24,  24, 180)

     Largest allocated arrays     est. size (Mb)     dimensions
        Kohn-Sham Wavefunctions         3.59 Mb     (    4520,   52)
        NL pseudopotentials             9.93 Mb     (    4520,  144)
        Each V/rho on FFT grid          3.75 Mb     (  245760)
        Each G-vector array             0.77 Mb     (  100611)
        G-vector shells                 0.04 Mb     (    4911)
     Largest temporary arrays     est. size (Mb)     dimensions
        Auxiliary wavefunctions        14.35 Mb     (    4520,  208)
        Each subspace H/S matrix        0.66 Mb     (     208,  208)
        Each <psi_i|beta_j> matrix      0.11 Mb     (     144,   52)
        Arrays for rho mixing          30.00 Mb     (  245760,    8)

     Check: negative/imaginary core charge=   -0.000003    0.000000

     Initial potential from superposition of free atoms
     Check: negative starting charge=   -0.000180

     starting charge   85.91012, renormalised to   86.00000

     negative rho (up, down):  1.798E-04 0.000E+00
     Starting wfc are    8 randomized atomic wfcs +   44 random wfc
     Checking if some PAW data can be deallocated... 

     total cpu time spent up to now is       47.2 secs

     per-process dynamical memory:   267.0 Mb

     Self-consistent Calculation

     iteration #  1     ecut=    40.00 Ry     beta=0.70
     Davidson diagonalization with overlap
     ethr =  1.00E-02,  avg # of iterations =  7.1

     Threshold (ethr) on eigenvalues was too large:
     Diagonalizing with lowered threshold

     Davidson diagonalization with overlap
     ethr =  5.90E-04,  avg # of iterations =  1.0

     negative rho (up, down):  1.522E-04 0.000E+00

     total cpu time spent up to now is      653.1 secs

     total energy              =   -1158.46836488 Ry
     Harris-Foulkes estimate   =   -1158.88639318 Ry
     estimated scf accuracy    <       0.50775886 Ry

     iteration #  2     ecut=    40.00 Ry     beta=0.70
     Davidson diagonalization with overlap
     ethr =  5.90E-04,  avg # of iterations =  5.3

     negative rho (up, down):  3.801E-04 0.000E+00

     total cpu time spent up to now is      900.0 secs

     total energy              =   -1151.19522319 Ry
     Harris-Foulkes estimate   =   -1165.04534350 Ry
     estimated scf accuracy    <     410.64631868 Ry

     iteration #  3     ecut=    40.00 Ry     beta=0.70
     Davidson diagonalization with overlap
     ethr =  5.90E-04,  avg # of iterations =  4.8

     negative rho (up, down):  2.149E-04 0.000E+00

     total cpu time spent up to now is     1114.6 secs

     total energy              =   -1158.49683649 Ry
     Harris-Foulkes estimate   =   -1159.10381699 Ry
     estimated scf accuracy    <       2.24179018 Ry

     iteration #  4     ecut=    40.00 Ry     beta=0.70
     Davidson diagonalization with overlap
     ethr =  5.90E-04,  avg # of iterations =  3.5

     negative rho (up, down):  1.303E-04 0.000E+00

     total cpu time spent up to now is     1284.1 secs

     total energy              =   -1158.79418870 Ry
     Harris-Foulkes estimate   =   -1158.82201561 Ry
     estimated scf accuracy    <       0.25495803 Ry

     iteration #  5     ecut=    40.00 Ry     beta=0.70
     Davidson diagonalization with overlap
     ethr =  2.96E-04,  avg # of iterations =  3.3

     negative rho (up, down):  1.298E-04 0.000E+00

     total cpu time spent up to now is     1436.6 secs

     total energy              =   -1158.78660039 Ry
     Harris-Foulkes estimate   =   -1158.83227169 Ry
     estimated scf accuracy    <       0.35875825 Ry

     iteration #  6     ecut=    40.00 Ry     beta=0.70
     Davidson diagonalization with overlap
     ethr =  2.96E-04,  avg # of iterations =  3.0

     negative rho (up, down):  1.342E-04 0.000E+00

     total cpu time spent up to now is     1582.9 secs

     total energy              =   -1158.80501885 Ry
     Harris-Foulkes estimate   =   -1158.81215593 Ry
     estimated scf accuracy    <       0.04507564 Ry

     iteration #  7     ecut=    40.00 Ry     beta=0.70
     Davidson diagonalization with overlap
     ethr =  5.24E-05,  avg # of iterations =  2.5

     negative rho (up, down):  1.372E-04 0.000E+00

     total cpu time spent up to now is     1725.8 secs

     total energy              =   -1158.80719442 Ry
     Harris-Foulkes estimate   =   -1158.80929355 Ry
     estimated scf accuracy    <       0.04903753 Ry

     iteration #  8     ecut=    40.00 Ry     beta=0.70
     Davidson diagonalization with overlap
     ethr =  5.24E-05,  avg # of iterations =  1.1

     negative rho (up, down):  1.403E-04 0.000E+00

     total cpu time spent up to now is     1861.0 secs

     total energy              =   -1158.80740475 Ry
     Harris-Foulkes estimate   =   -1158.80823229 Ry
     estimated scf accuracy    <       0.01733051 Ry

     iteration #  9     ecut=    40.00 Ry     beta=0.70
     Davidson diagonalization with overlap
     ethr =  2.02E-05,  avg # of iterations =  1.1

     negative rho (up, down):  1.422E-04 0.000E+00

     total cpu time spent up to now is     1997.5 secs

     total energy              =   -1158.80752207 Ry
     Harris-Foulkes estimate   =   -1158.80768999 Ry
     estimated scf accuracy    <       0.00399680 Ry

     iteration # 10     ecut=    40.00 Ry     beta=0.70
     Davidson diagonalization with overlap
     ethr =  4.65E-06,  avg # of iterations =  2.7

     negative rho (up, down):  1.435E-04 0.000E+00

     total cpu time spent up to now is     2140.7 secs

     total energy              =   -1158.80746236 Ry
     Harris-Foulkes estimate   =   -1158.80755456 Ry
     estimated scf accuracy    <       0.00223061 Ry

     iteration # 11     ecut=    40.00 Ry     beta=0.70
     Davidson diagonalization with overlap
     ethr =  2.59E-06,  avg # of iterations =  1.4

     negative rho (up, down):  1.459E-04 0.000E+00

     total cpu time spent up to now is     2279.8 secs

     total energy              =   -1158.80739364 Ry
     Harris-Foulkes estimate   =   -1158.80748505 Ry
     estimated scf accuracy    <       0.00074547 Ry

     iteration # 12     ecut=    40.00 Ry     beta=0.70
     Davidson diagonalization with overlap
     ethr =  8.67E-07,  avg # of iterations =  2.2

     negative rho (up, down):  1.460E-04 0.000E+00

     total cpu time spent up to now is     2421.2 secs

     total energy              =   -1158.80743844 Ry
     Harris-Foulkes estimate   =   -1158.80744127 Ry
     estimated scf accuracy    <       0.00001948 Ry

     iteration # 13     ecut=    40.00 Ry     beta=0.70
     Davidson diagonalization with overlap
     ethr =  2.27E-08,  avg # of iterations =  2.0

     negative rho (up, down):  1.462E-04 0.000E+00

     total cpu time spent up to now is     2578.6 secs

     End of self-consistent calculation

          k = 0.0625 0.1083-0.0673 (  4518 PWs)   bands (ev):

   -98.7666 -98.1057 -98.0501 -97.6454 -50.1129 -50.0024 -49.9884 -49.4569
   -49.3487 -49.3302 -49.3279 -49.2913 -49.2782 -48.9080 -48.8944 -48.8664
   -17.4147  -3.7285  -1.5365  -0.9961   0.0354   0.7467   0.8363   1.3412
     1.3892   2.3300   2.5014   2.6978   2.8067   2.9663   3.0527   3.1366
     3.3066   3.4148   3.6132   3.7557   3.9351   4.0258   4.4866   4.5894
     4.8704   5.1892   5.5230   5.8397   7.8646  10.7988  11.6171  11.7166
    12.7693  13.1588  14.7123  15.2748

          k = 0.0625 0.2526-0.0673 (  4466 PWs)   bands (ev):

   -98.7641 -98.1031 -98.0476 -97.6429 -50.1057 -50.0547 -50.0031 -49.4473
   -49.3981 -49.3493 -49.3397 -49.3264 -49.2923 -48.9587 -48.9089 -48.8615
   -17.2754  -3.1827  -0.9665  -0.3342   0.3716   0.7475   1.1838   1.2509
     1.5734   2.0137   2.1921   2.4593   2.6694   2.9863   3.2039   3.2394
     3.4161   3.5237   3.7279   4.0166   4.0343   4.3244   4.4969   4.7129
     4.9649   5.3212   5.5842   6.8086   8.8851  10.0397  11.3662  12.1377
    13.6741  14.1188  15.4446  16.2703

          k = 0.0625 0.3969-0.0673 (  4438 PWs)   bands (ev):

   -98.7611 -98.1001 -98.0447 -97.6400 -50.1158 -50.0973 -50.0204 -49.4606
   -49.4421 -49.3896 -49.3622 -49.3305 -49.3088 -49.0177 -48.9259 -48.8559
   -17.1048  -2.5456  -1.0525  -0.0864   0.5769   0.8492   0.9682   1.1762
     1.4810   1.6564   2.1437   2.6705   2.9238   3.0406   3.2067   3.5228
     3.7792   4.1486   4.4025   4.4612   4.7224   4.8938   5.1575   5.4147
     5.5682   5.7599   6.1519   7.6942   8.6833  10.5161  11.0325  13.2929
    14.1237  14.9484  15.3041  15.9094

          k = 0.0625 0.5413-0.0673 (  4394 PWs)   bands (ev):

   -98.7595 -98.0984 -98.0431 -97.6383 -50.1502 -50.0925 -50.0302 -49.4930
   -49.4593 -49.3970 -49.3728 -49.3330 -49.3181 -49.0507 -48.9355 -48.8527
   -17.0047  -2.1130  -1.4285  -0.2242   0.6110   0.7603   0.8260   1.0921
     1.2289   1.6177   2.1085   2.7249   2.9237   3.0355   3.3166   3.6893
     4.3220   4.5381   4.9094   5.0762   5.4138   5.4812   5.7243   5.8605
     5.9975   7.0773   7.7557   8.4086   9.5760  10.3241  10.8079  11.3764
    12.1487  13.0878  14.3296  16.2323

          k = 0.0625-0.4691-0.0673 (  4416 PWs)   bands (ev):

   -98.7601 -98.0990 -98.0437 -97.6389 -50.1382 -50.0942 -50.0267 -49.4814
   -49.4517 -49.3963 -49.3691 -49.3320 -49.3148 -49.0392 -48.9321 -48.8538
   -17.0401  -2.2855  -1.2635  -0.1789   0.6530   0.7891   0.8738   1.1368
     1.3065   1.6274   2.0997   2.7025   2.9293   3.0986   3.2496   3.6659
     4.0819   4.4031   4.7285   4.9207   5.1136   5.3356   5.4382   5.6966
     5.8139   6.4041   6.9657   7.7728   9.1994  10.8385  11.2302  11.8278
    12.8322  14.1832  15.2317  16.2419

          k = 0.0625-0.3248-0.0673 (  4460 PWs)   bands (ev):

   -98.7626 -98.1016 -98.0461 -97.6414 -50.1013 -50.0865 -50.0121 -49.4450
   -49.4274 -49.3714 -49.3528 -49.3288 -49.3009 -48.9895 -48.9177 -48.8585
   -17.1876  -2.8547  -0.9115  -0.0063   0.3044   0.8797   1.0768   1.2352
     1.6932   1.7573   2.2148   2.4586   2.7588   3.0066   3.1962   3.4159
     3.5798   3.7759   3.9421   4.0717   4.4192   4.5101   4.8454   5.0025
     5.2628   5.4954   5.7070   7.3057   8.8150  10.0896  11.1934  12.7393
    14.3868  14.8415  15.8729  16.2723

          k = 0.0625-0.1804-0.0673 (  4490 PWs)   bands (ev):

   -98.7655 -98.1046 -98.0490 -97.6443 -50.1098 -50.0251 -49.9947 -49.4524
   -49.3699 -49.3374 -49.3296 -49.3116 -49.2843 -48.9300 -48.9007 -48.8642
   -17.3549  -3.4894  -1.2316  -0.7265   0.3565   0.6456   1.1321   1.2745
     1.3342   2.2012   2.3101   2.6953   2.7934   2.8936   2.9953   3.2786
     3.3598   3.4157   3.5928   3.7876   4.0386   4.1165   4.4081   4.6002
     4.8108   5.2282   5.5381   6.3043   8.4618  10.4191  11.5188  11.7931
    13.1319  13.5484  15.0106  15.7014

          k = 0.0625-0.0361-0.0673 (  4520 PWs)   bands (ev):

   -98.7672 -98.1063 -98.0507 -97.6460 -50.1146 -49.9899 -49.9851 -49.4594
   -49.3382 -49.3268 -49.3260 -49.2796 -49.2749 -48.8959 -48.8912 -48.8675
   -17.4466  -3.8596  -1.7198  -1.1342  -0.1602   0.5743   0.8849   1.4038
     1.4233   2.4243   2.5573   2.6111   2.8951   3.0122   3.0270   3.1150
     3.1609   3.5035   3.6193   3.8905   3.9592   4.0042   4.5207   4.5482
     4.9967   5.1485   5.5307   5.6003   7.4038  10.9643  11.6994  11.7587
    12.5878  12.9599  14.5588  15.0455

          k = 0.1875 0.3248-0.0673 (  4450 PWs)   bands (ev):

   -98.7616 -98.1006 -98.0452 -97.6404 -50.0987 -50.0968 -50.0274 -49.4465
   -49.4330 -49.3855 -49.3625 -49.3293 -49.3157 -48.9996 -48.9327 -48.8567
   -17.1316  -2.6386  -0.8951   0.2459   0.4522   0.8078   1.1687   1.6187
     1.7164   1.9118   2.1480   2.2277   2.7010   2.8788   2.9888   3.2100
     3.2769   3.7014   3.9551   4.1197   4.5803   4.7953   4.9709   5.4259
     5.5599   5.8497   6.2945   7.7930   8.7772  10.4629  10.6444  13.3339
    14.9306  15.3936  15.9273  16.2405

          k = 0.1875 0.4691-0.0673 (  4428 PWs)   bands (ev):

   -98.7595 -98.0984 -98.0431 -97.6383 -50.1285 -50.0925 -50.0522 -49.4718
   -49.4442 -49.4017 -49.3862 -49.3396 -49.3302 -49.0300 -48.9568 -48.8526
   -17.0059  -2.1321  -1.0887   0.0204   0.3483   1.1126   1.2300   1.4371
     1.7109   1.9191   2.2223   2.4227   2.6604   2.9265   3.1379   3.4145
     3.7442   4.0821   4.1962   4.4116   4.7908   5.1403   5.3855   5.7601
     5.8774   7.5063   7.7936   8.4515   9.6896  10.2593  11.8401  12.3084
    13.1756  14.3133  15.1711  15.6909

          k = 0.1875 0.6134-0.0673 (  4432 PWs)   bands (ev):

   -98.7590 -98.0979 -98.0426 -97.6378 -50.1355 -50.0911 -50.0584 -49.4786
   -49.4477 -49.4036 -49.3918 -49.3441 -49.3314 -49.0368 -48.9628 -48.8517
   -16.9759  -1.9854  -1.1727  -0.0563   0.2883   1.0752   1.2373   1.4178
     1.6654   2.0444   2.1749   2.3396   2.6197   3.0586   3.2360   3.4727
     3.8055   4.2404   4.5086   4.5895   4.9856   5.1942   5.4457   5.7505
     5.8828   7.5487   8.7323   9.4077   9.8083  10.4313  11.2063  11.7585
    12.8795  13.3922  14.4171  15.7992

          k = 0.1875-0.3969-0.0673 (  4450 PWs)   bands (ev):

   -98.7604 -98.0994 -98.0440 -97.6392 -50.1152 -50.0951 -50.0411 -49.4595
   -49.4390 -49.3968 -49.3756 -49.3325 -49.3264 -49.0172 -48.9460 -48.8544
   -17.0609  -2.3644  -0.9820   0.1414   0.4576   0.9991   1.2300   1.5024
     1.7422   1.9249   2.1265   2.4667   2.6904   2.8209   2.9489   3.4001
     3.5438   3.7492   4.0158   4.2044   4.6536   5.0676   5.1891   5.6421
     5.7900   6.5964   7.2058   8.0742   9.0388  10.2295  11.1414  13.8130
    14.4057  14.9274  15.6770  15.8376

          k = 0.1875-0.2526-0.0673 (  4452 PWs)   bands (ev):

   -98.7629 -98.1019 -98.0465 -97.6417 -50.1023 -50.0759 -50.0139 -49.4443
   -49.4175 -49.3681 -49.3498 -49.3280 -49.3029 -48.9792 -48.9195 -48.8592
   -17.2069  -2.9229  -0.8762   0.0485   0.3276   0.8666   1.0889   1.4094
     1.7980   1.9196   2.0851   2.3260   2.5802   2.9483   3.1091   3.1968
     3.3006   3.6703   3.9090   4.0174   4.3992   4.4642   4.7729   4.9980
     5.2968   5.4350   5.7257   7.2574   8.9177  10.1065  11.0262  12.6365
    14.2174  14.6824  15.8629  16.7300

          k = 0.1875-0.1083-0.0673 (  4480 PWs)   bands (ev):

   -98.7650 -98.1041 -98.0485 -97.6438 -50.1084 -50.0364 -49.9968 -49.4505
   -49.3809 -49.3381 -49.3332 -49.3203 -49.2861 -48.9410 -48.9027 -48.8633
   -17.3271  -3.3815  -1.1206  -0.5990   0.4150   0.6098   1.1944   1.2826
     1.3593   2.1429   2.2612   2.6113   2.7530   3.0020   3.0600   3.3229
     3.3327   3.4855   3.6847   3.8191   3.9342   4.1950   4.4189   4.5672
     4.9982   5.0898   5.6196   6.4731   8.6504  10.2232  11.5515  11.8514
    13.3117  13.7389  15.1548  15.8949

          k = 0.3125 0.5413-0.0673 (  4434 PWs)   bands (ev):

   -98.7585 -98.0975 -98.0422 -97.6374 -50.1133 -50.0927 -50.0897 -49.4572
   -49.4384 -49.4339 -49.3901 -49.3677 -49.3315 -49.0156 -48.9958 -48.8508
   -16.9494  -1.8680  -0.7907  -0.4371   0.2162   1.4225   1.5204   1.7477
     1.9088   2.1497   2.2669   2.4037   2.4725   2.7861   3.1263   3.6719
     3.8134   3.8632   4.1443   4.4166   4.5814   5.2584   5.4123   5.5105
     5.9487   7.6633   8.7013   9.8862  10.9125  11.0308  11.2630  12.5792
    12.8516  13.6285  14.3151  15.1814

          k = 0.3125 0.6856-0.0673 (  4444 PWs)   bands (ev):

   -98.7588 -98.0978 -98.0425 -97.6377 -50.1241 -50.0907 -50.0731 -49.4674
   -49.4406 -49.4183 -49.3892 -49.3564 -49.3311 -49.0259 -48.9769 -48.8514
   -16.9694  -1.9627  -0.9863  -0.1216   0.1991   1.3252   1.3734   1.6718
     1.8434   2.0768   2.2507   2.3650   2.5318   2.9252   3.0147   3.5844
     3.6978   4.0010   4.1825   4.3536   4.6587   5.1976   5.4433   5.7014
     5.9030   7.7237   8.6345   9.0874   9.8876  11.1646  11.5991  12.3226
    13.2049  13.5034  14.6341  14.9998

          k = 0.3125-0.3248-0.0673 (  4428 PWs)   bands (ev):

   -98.7603 -98.0993 -98.0439 -97.6391 -50.1255 -50.0948 -50.0339 -49.4692
   -49.4444 -49.3948 -49.3745 -49.3310 -49.3214 -49.0270 -48.9390 -48.8542
   -17.0536  -2.3387  -1.1020  -0.0340   0.6296   0.8950   1.0125   1.2966
     1.5002   1.7932   2.1535   2.5612   2.8095   2.9625   3.2502   3.3887
     3.7962   4.0799   4.3271   4.5271   4.8367   5.0668   5.2247   5.6686
     5.7662   6.5216   7.0966   7.9209   9.0872  10.4947  11.1697  12.8583
    13.7721  14.6355  15.5551  16.0637

          k = 0.3125-0.1804-0.0673 (  4442 PWs)   bands (ev):

   -98.7619 -98.1010 -98.0455 -97.6408 -50.1018 -50.0994 -50.0133 -49.4498
   -49.4379 -49.3809 -49.3551 -49.3299 -49.3019 -49.0040 -48.9189 -48.8574
   -17.1518  -2.7244  -0.9767  -0.0763   0.3880   0.8438   1.0670   1.1504
     1.5666   1.6256   2.1863   2.6465   2.9293   3.1287   3.1329   3.5662
     3.7331   4.0847   4.1074   4.3078   4.5321   4.8075   4.8969   5.0582
     5.3076   5.6549   5.6711   7.4452   8.6822  10.2053  11.2481  12.9874
    14.7221  15.0297  15.1453  16.1069

          k = 0.4375 0.7578-0.0673 (  4420 PWs)   bands (ev):

   -98.7592 -98.0981 -98.0428 -97.6380 -50.1458 -50.0917 -50.0422 -49.4887
   -49.4555 -49.3959 -49.3851 -49.3323 -49.3292 -49.0466 -48.9471 -48.8522
   -16.9883  -2.0343  -1.3507  -0.1397   0.5343   0.8349   0.9574   1.2639
     1.3496   1.8345   2.1417   2.5229   2.7414   3.1234   3.2384   3.6955
     4.0349   4.3613   4.8308   5.0158   5.1915   5.2829   5.6044   5.7937
     5.8992   7.3615   8.5797   9.1437   9.7546  10.0140  10.6874  11.6195
    12.1631  13.6067  13.8325  16.4063

          k = 0.4375-0.2526-0.0673 (  4396 PWs)   bands (ev):

   -98.7598 -98.0987 -98.0434 -97.6386 -50.1473 -50.0934 -50.0250 -49.4903
   -49.4577 -49.3973 -49.3671 -49.3330 -49.3130 -49.0480 -48.9304 -48.8533
   -17.0229  -2.2057  -1.3898  -0.2438   0.5788   0.7078   0.9152   1.0441
     1.2152   1.5471   2.0887   2.7944   2.9736   3.0584   3.3374   3.6386
     4.4224   4.6040   4.8240   4.9596   5.4496   5.6232   5.6836   5.7709
     6.0899   6.4963   7.1618   7.7971   9.4123  10.8121  11.0031  11.4963
    12.1107  13.4577  14.9726  15.9418

          k = 0.1250 0.0000-0.0673 (  4518 PWs)   bands (ev):

   -98.7666 -98.1057 -98.0501 -97.6454 -50.1129 -50.0023 -49.9885 -49.4569
   -49.3487 -49.3302 -49.3279 -49.2913 -49.2782 -48.9079 -48.8945 -48.8664
   -17.4147  -3.7285  -1.5365  -0.9961   0.0354   0.7468   0.8363   1.3421
     1.3882   2.3300   2.5014   2.6977   2.8068   2.9663   3.0527   3.1366
     3.3066   3.4148   3.6132   3.7557   3.9352   4.0258   4.4866   4.5894
     4.8704   5.1892   5.5230   5.8398   7.8647  10.7976  11.6117  11.7223
    12.7694  13.1590  14.7124  15.2753

          k =-0.1875 0.1804-0.0673 (  4466 PWs)   bands (ev):

   -98.7641 -98.1031 -98.0476 -97.6429 -50.1057 -50.0546 -50.0031 -49.4473
   -49.3981 -49.3493 -49.3397 -49.3264 -49.2923 -48.9586 -48.9089 -48.8615
   -17.2754  -3.1827  -0.9665  -0.3341   0.3720   0.7473   1.1835   1.2508
     1.5733   2.0136   2.1922   2.4592   2.6695   2.9863   3.2039   3.2395
     3.4162   3.5238   3.7278   4.0166   4.0343   4.3245   4.4970   4.7129
     4.9650   5.3213   5.5843   6.8090   8.8845  10.0377  11.3674  12.1378
    13.6741  14.1190  15.4447  16.2705

          k = 0.2500 0.0722-0.0673 (  4466 PWs)   bands (ev):

   -98.7641 -98.1031 -98.0476 -97.6429 -50.1057 -50.0546 -50.0031 -49.4473
   -49.3981 -49.3493 -49.3397 -49.3264 -49.2923 -48.9586 -48.9089 -48.8615
   -17.2754  -3.1827  -0.9665  -0.3342   0.3719   0.7476   1.1840   1.2501
     1.5733   2.0136   2.1921   2.4592   2.6695   2.9864   3.2039   3.2394
     3.4161   3.5238   3.7281   4.0166   4.0343   4.3246   4.4970   4.7129
     4.9649   5.3215   5.5842   6.8092   8.8843  10.0380  11.3637  12.1404
    13.6742  14.1195  15.4448  16.2714

          k =-0.3125 0.2526-0.0673 (  4438 PWs)   bands (ev):

   -98.7611 -98.1001 -98.0447 -97.6400 -50.1158 -50.0973 -50.0204 -49.4606
   -49.4421 -49.3896 -49.3621 -49.3305 -49.3088 -49.0177 -48.9259 -48.8559
   -17.1048  -2.5455  -1.0527  -0.0857   0.5767   0.8488   0.9683   1.1758
     1.4810   1.6563   2.1437   2.6703   2.9238   3.0407   3.2066   3.5229
     3.7793   4.1489   4.4025   4.4613   4.7224   4.8939   5.1576   5.4147
     5.5683   5.7600   6.1527   7.6954   8.6794  10.5167  11.0323  13.2931
    14.1237  14.9483  15.3039  15.9095

          k = 0.3750 0.1443-0.0673 (  4438 PWs)   bands (ev):

   -98.7611 -98.1001 -98.0447 -97.6400 -50.1158 -50.0973 -50.0205 -49.4606
   -49.4421 -49.3896 -49.3621 -49.3305 -49.3088 -49.0177 -48.9259 -48.8559
   -17.1048  -2.5455  -1.0526  -0.0857   0.5768   0.8493   0.9675   1.1759
     1.4810   1.6564   2.1438   2.6705   2.9239   3.0405   3.2068   3.5228
     3.7791   4.1489   4.4026   4.4613   4.7224   4.8938   5.1575   5.4147
     5.5684   5.7600   6.1528   7.6953   8.6796  10.5157  11.0326  13.2935
    14.1237  14.9480  15.3039  15.9102

          k =-0.4375 0.3248-0.0673 (  4394 PWs)   bands (ev):

   -98.7595 -98.0984 -98.0431 -97.6383 -50.1502 -50.0925 -50.0302 -49.4931
   -49.4593 -49.3970 -49.3728 -49.3330 -49.3181 -49.0507 -48.9355 -48.8527
   -17.0047  -2.1129  -1.4286  -0.2237   0.6108   0.7600   0.8260   1.0920
     1.2287   1.6175   2.1088   2.7250   2.9237   3.0354   3.3167   3.6893
     4.3219   4.5381   4.9098   5.0763   5.4138   5.4812   5.7243   5.8605
     5.9975   7.0794   7.7553   8.4080   9.5757  10.3208  10.8080  11.3761
    12.1485  13.0891  14.3297  16.2324

          k = 0.5000 0.2165-0.0673 (  4394 PWs)   bands (ev):

   -98.7595 -98.0984 -98.0431 -97.6383 -50.1502 -50.0925 -50.0302 -49.4931
   -49.4593 -49.3970 -49.3728 -49.3330 -49.3181 -49.0507 -48.9355 -48.8527
   -17.0047  -2.1129  -1.4286  -0.2237   0.6110   0.7600   0.8259   1.0920
     1.2286   1.6175   2.1088   2.7252   2.9235   3.0356   3.3166   3.6893
     4.3219   4.5380   4.9098   5.0762   5.4137   5.4812   5.7243   5.8604
     5.9975   7.0794   7.7553   8.4081   9.5757  10.3211  10.8075  11.3760
    12.1487  13.0893  14.3293  16.2325

          k = 0.4375-0.1804-0.0673 (  4416 PWs)   bands (ev):

   -98.7601 -98.0990 -98.0437 -97.6389 -50.1381 -50.0942 -50.0268 -49.4814
   -49.4517 -49.3963 -49.3691 -49.3320 -49.3148 -49.0392 -48.9321 -48.8538
   -17.0401  -2.2854  -1.2636  -0.1783   0.6531   0.7888   0.8734   1.1365
     1.3063   1.6273   2.0999   2.7026   2.9290   3.0987   3.2497   3.6657
     4.0818   4.4033   4.7288   4.9206   5.1135   5.3356   5.4382   5.6966
     5.8141   6.4048   6.9672   7.7714   9.1973  10.8377  11.2308  11.8269
    12.8325  14.1838  15.2311  16.2416

          k =-0.3750-0.2887-0.0673 (  4416 PWs)   bands (ev):

   -98.7601 -98.0990 -98.0437 -97.6389 -50.1381 -50.0942 -50.0268 -49.4814
   -49.4517 -49.3963 -49.3691 -49.3320 -49.3148 -49.0392 -48.9321 -48.8538
   -17.0401  -2.2854  -1.2636  -0.1783   0.6528   0.7888   0.8739   1.1365
     1.3064   1.6273   2.0999   2.7024   2.9293   3.0985   3.2497   3.6659
     4.0816   4.4035   4.7287   4.9207   5.1136   5.3357   5.4382   5.6967
     5.8140   6.4048   6.9671   7.7715   9.1969  10.8395  11.2291  11.8270
    12.8326  14.1838  15.2314  16.2418

          k = 0.3125-0.1083-0.0673 (  4460 PWs)   bands (ev):

   -98.7626 -98.1016 -98.0461 -97.6414 -50.1013 -50.0864 -50.0121 -49.4450
   -49.4274 -49.3714 -49.3528 -49.3288 -49.3009 -48.9894 -48.9177 -48.8585
   -17.1877  -2.8547  -0.9115  -0.0058   0.3044   0.8797   1.0764   1.2349
     1.6931   1.7572   2.2148   2.4586   2.7589   3.0068   3.1961   3.4160
     3.5799   3.7759   3.9421   4.0719   4.4193   4.5102   4.8453   5.0025
     5.2628   5.4957   5.7073   7.3068   8.8119  10.0892  11.1924  12.7408
    14.3869  14.8422  15.8730  16.2719

          k =-0.2500-0.2165-0.0673 (  4460 PWs)   bands (ev):

   -98.7626 -98.1016 -98.0461 -97.6414 -50.1013 -50.0865 -50.0121 -49.4450
   -49.4274 -49.3714 -49.3528 -49.3288 -49.3009 -48.9894 -48.9177 -48.8585
   -17.1877  -2.8547  -0.9116  -0.0057   0.3042   0.8793   1.0769   1.2349
     1.6931   1.7573   2.2148   2.4586   2.7588   3.0066   3.1962   3.4159
     3.5802   3.7759   3.9421   4.0717   4.4192   4.5102   4.8454   5.0025
     5.2628   5.4955   5.7073   7.3066   8.8122  10.0890  11.1941  12.7396
    14.3869  14.8417  15.8728  16.2724

          k = 0.1875-0.0361-0.0673 (  4490 PWs)   bands (ev):

   -98.7655 -98.1046 -98.0490 -97.6443 -50.1098 -50.0251 -49.9948 -49.4524
   -49.3699 -49.3374 -49.3296 -49.3116 -49.2843 -48.9300 -48.9007 -48.8642
   -17.3549  -3.4894  -1.2316  -0.7265   0.3565   0.6459   1.1322   1.2755
     1.3328   2.2011   2.3100   2.6953   2.7935   2.8935   2.9954   3.2786
     3.3598   3.4158   3.5929   3.7877   4.0386   4.1165   4.4081   4.6003
     4.8108   5.2283   5.5381   6.3046   8.4617  10.4172  11.5138  11.7985
    13.1321  13.5489  15.0107  15.7024

          k =-0.1250-0.1443-0.0673 (  4490 PWs)   bands (ev):

   -98.7655 -98.1046 -98.0490 -97.6443 -50.1098 -50.0251 -49.9948 -49.4524
   -49.3699 -49.3374 -49.3296 -49.3116 -49.2843 -48.9300 -48.9007 -48.8642
   -17.3549  -3.4894  -1.2316  -0.7265   0.3565   0.6457   1.1321   1.2741
     1.3344   2.2012   2.3100   2.6952   2.7936   2.8936   2.9953   3.2786
     3.3598   3.4158   3.5928   3.7876   4.0386   4.1165   4.4081   4.6002
     4.8109   5.2282   5.5381   6.3044   8.4618  10.4175  11.5205  11.7925
    13.1320  13.5485  15.0106  15.7016

          k = 0.0000-0.0722-0.0673 (  4520 PWs)   bands (ev):

   -98.7672 -98.1063 -98.0507 -97.6460 -50.1146 -49.9900 -49.9850 -49.4594
   -49.3382 -49.3268 -49.3260 -49.2796 -49.2749 -48.8959 -48.8911 -48.8675
   -17.4466  -3.8596  -1.7198  -1.1342  -0.1602   0.5743   0.8848   1.4038
     1.4233   2.4242   2.5574   2.6112   2.8951   3.0122   3.0270   3.1150
     3.1609   3.5035   3.6193   3.8904   3.9592   4.0043   4.5207   4.5483
     4.9967   5.1484   5.5307   5.6003   7.4038  10.9651  11.6989  11.7586
    12.5877  12.9598  14.5588  15.0454

          k = 0.3750 0.0000-0.0673 (  4450 PWs)   bands (ev):

   -98.7616 -98.1006 -98.0452 -97.6404 -50.0987 -50.0968 -50.0275 -49.4465
   -49.4330 -49.3855 -49.3625 -49.3293 -49.3157 -48.9996 -48.9327 -48.8567
   -17.1316  -2.6386  -0.8950   0.2462   0.4519   0.8077   1.1686   1.6186
     1.7164   1.9117   2.1481   2.2276   2.7010   2.8788   2.9889   3.2101
     3.2770   3.7014   3.9550   4.1196   4.5806   4.7951   4.9710   5.4261
     5.5599   5.8498   6.2949   7.7935   8.7759  10.4607  10.6450  13.3350
    14.9306  15.3947  15.9274  16.2390

          k =-0.3125 0.3969-0.0673 (  4428 PWs)   bands (ev):

   -98.7595 -98.0984 -98.0431 -97.6383 -50.1285 -50.0925 -50.0523 -49.4718
   -49.4442 -49.4017 -49.3862 -49.3396 -49.3302 -49.0300 -48.9568 -48.8526
   -17.0059  -2.1321  -1.0886   0.0203   0.3485   1.1125   1.2300   1.4371
     1.7109   1.9189   2.2223   2.4227   2.6602   2.9265   3.1379   3.4145
     3.7445   4.0821   4.1962   4.4117   4.7908   5.1406   5.3853   5.7600
     5.8775   7.5074   7.7934   8.4500   9.6897  10.2592  11.8403  12.3073
    13.1756  14.3133  15.1720  15.6904

          k = 0.5000 0.0722-0.0673 (  4428 PWs)   bands (ev):

   -98.7595 -98.0984 -98.0431 -97.6383 -50.1284 -50.0925 -50.0523 -49.4718
   -49.4442 -49.4017 -49.3862 -49.3396 -49.3302 -49.0300 -48.9568 -48.8526
   -17.0059  -2.1320  -1.0886   0.0207   0.3478   1.1125   1.2301   1.4371
     1.7109   1.9190   2.2223   2.4228   2.6602   2.9265   3.1380   3.4146
     3.7443   4.0824   4.1962   4.4117   4.7908   5.1406   5.3850   5.7604
     5.8774   7.5073   7.7928   8.4508   9.6904  10.2578  11.8408  12.3075
    13.1754  14.3124  15.1719  15.6901

          k =-0.4375 0.4691-0.0673 (  4432 PWs)   bands (ev):

   -98.7590 -98.0979 -98.0426 -97.6378 -50.1354 -50.0911 -50.0585 -49.4786
   -49.4477 -49.4036 -49.3918 -49.3441 -49.3314 -49.0367 -48.9628 -48.8517
   -16.9759  -1.9854  -1.1724  -0.0563   0.2882   1.0750   1.2373   1.4178
     1.6653   2.0445   2.1750   2.3397   2.6193   3.0585   3.2361   3.4726
     3.8056   4.2408   4.5086   4.5896   4.9856   5.1941   5.4456   5.7506
     5.8828   7.5485   8.7323   9.4085   9.8081  10.4311  11.2047  11.7584
    12.8785  13.3929  14.4171  15.7990

          k = 0.6250 0.1443-0.0673 (  4432 PWs)   bands (ev):

   -98.7590 -98.0979 -98.0426 -97.6378 -50.1354 -50.0911 -50.0585 -49.4786
   -49.4477 -49.4036 -49.3918 -49.3441 -49.3314 -49.0367 -48.9628 -48.8517
   -16.9759  -1.9854  -1.1725  -0.0565   0.2884   1.0751   1.2373   1.4178
     1.6653   2.0443   2.1751   2.3396   2.6193   3.0586   3.2361   3.4726
     3.8057   4.2407   4.5086   4.5896   4.9856   5.1942   5.4456   5.7504
     5.8829   7.5489   8.7320   9.4077   9.8086  10.4312  11.2049  11.7582
    12.8791  13.3919  14.4181  15.7991

          k = 0.4375-0.0361-0.0673 (  4450 PWs)   bands (ev):

   -98.7604 -98.0994 -98.0440 -97.6392 -50.1152 -50.0951 -50.0412 -49.4595
   -49.4390 -49.3968 -49.3756 -49.3325 -49.3264 -49.0172 -48.9460 -48.8544
   -17.0609  -2.3643  -0.9819   0.1420   0.4567   0.9993   1.2299   1.5022
     1.7422   1.9248   2.1265   2.4667   2.6905   2.8209   2.9490   3.4005
     3.5439   3.7493   4.0156   4.2044   4.6537   5.0679   5.1887   5.6424
     5.7900   6.5966   7.2067   8.0730   9.0387  10.2273  11.1427  13.8130
    14.4060  14.9266  15.6761  15.8377

          k =-0.2500-0.3608-0.0673 (  4450 PWs)   bands (ev):

   -98.7604 -98.0994 -98.0440 -97.6392 -50.1152 -50.0951 -50.0411 -49.4595
   -49.4390 -49.3968 -49.3756 -49.3325 -49.3264 -49.0172 -48.9460 -48.8544
   -17.0609  -2.3644  -0.9819   0.1416   0.4576   0.9990   1.2300   1.5023
     1.7422   1.9247   2.1265   2.4667   2.6904   2.8209   2.9489   3.4004
     3.5439   3.7492   4.0155   4.2046   4.6536   5.0679   5.1890   5.6422
     5.7900   6.5965   7.2062   8.0739   9.0377  10.2302  11.1411  13.8129
    14.4057  14.9274  15.6771  15.8377

          k = 0.3125 0.0361-0.0673 (  4452 PWs)   bands (ev):

   -98.7629 -98.1019 -98.0465 -97.6417 -50.1023 -50.0758 -50.0140 -49.4443
   -49.4175 -49.3681 -49.3498 -49.3280 -49.3029 -48.9792 -48.9195 -48.8592
   -17.2069  -2.9229  -0.8761   0.0483   0.3279   0.8671   1.0883   1.4094
     1.7979   1.9195   2.0851   2.3260   2.5802   2.9485   3.1093   3.1966
     3.3006   3.6704   3.9090   4.0173   4.3993   4.4645   4.7728   4.9980
     5.2968   5.4351   5.7259   7.2578   8.9169  10.1071  11.0231  12.6384
    14.2175  14.6832  15.8631  16.7307

          k =-0.1250-0.2887-0.0673 (  4452 PWs)   bands (ev):

   -98.7629 -98.1019 -98.0465 -97.6417 -50.1023 -50.0759 -50.0139 -49.4443
   -49.4175 -49.3681 -49.3498 -49.3280 -49.3029 -48.9792 -48.9194 -48.8592
   -17.2069  -2.9229  -0.8762   0.0483   0.3276   0.8668   1.0889   1.4095
     1.7980   1.9196   2.0851   2.3260   2.5801   2.9484   3.1091   3.1967
     3.3005   3.6703   3.9091   4.0174   4.3993   4.4641   4.7728   4.9980
     5.2968   5.4351   5.7255   7.2570   8.9187  10.1070  11.0256  12.6364
    14.2174  14.6824  15.8628  16.7301

          k = 0.0000-0.2165-0.0673 (  4480 PWs)   bands (ev):

   -98.7650 -98.1041 -98.0485 -97.6438 -50.1084 -50.0365 -49.9967 -49.4505
   -49.3809 -49.3381 -49.3332 -49.3203 -49.2861 -48.9410 -48.9027 -48.8633
   -17.3271  -3.3815  -1.1206  -0.5990   0.4149   0.6097   1.1947   1.2827
     1.3596   2.1429   2.2612   2.6113   2.7528   3.0019   3.0600   3.3230
     3.3327   3.4854   3.6847   3.8191   3.9340   4.1950   4.4188   4.5672
     4.9982   5.0895   5.6196   6.4727   8.6506  10.2261  11.5516  11.8498
    13.3117  13.7386  15.1546  15.8943

          k = 0.6250 0.0000-0.0673 (  4434 PWs)   bands (ev):

   -98.7585 -98.0975 -98.0422 -97.6374 -50.1133 -50.0928 -50.0897 -49.4572
   -49.4384 -49.4339 -49.3901 -49.3677 -49.3315 -49.0156 -48.9958 -48.8508
   -16.9494  -1.8680  -0.7906  -0.4371   0.2160   1.4226   1.5206   1.7476
     1.9088   2.1497   2.2669   2.4037   2.4723   2.7862   3.1263   3.6719
     3.8136   3.8632   4.1442   4.4168   4.5813   5.2582   5.4123   5.5106
     5.9488   7.6625   8.7023   9.8861  10.9124  11.0306  11.2636  12.5780
    12.8516  13.6291  14.3135  15.1820

          k =-0.4375 0.6134-0.0673 (  4444 PWs)   bands (ev):

   -98.7588 -98.0978 -98.0425 -97.6377 -50.1240 -50.0907 -50.0731 -49.4674
   -49.4406 -49.4183 -49.3892 -49.3564 -49.3311 -49.0259 -48.9769 -48.8514
   -16.9694  -1.9627  -0.9862  -0.1211   0.1983   1.3252   1.3736   1.6717
     1.8435   2.0767   2.2507   2.3650   2.5317   2.9252   3.0148   3.5844
     3.6978   4.0010   4.1826   4.3536   4.6587   5.1974   5.4431   5.7017
     5.9030   7.7224   8.6355   9.0882   9.8869  11.1647  11.5995  12.3222
    13.2046  13.5030  14.6328  15.0005

          k = 0.7500 0.0722-0.0673 (  4444 PWs)   bands (ev):

   -98.7588 -98.0978 -98.0425 -97.6377 -50.1241 -50.0907 -50.0730 -49.4674
   -49.4406 -49.4183 -49.3892 -49.3564 -49.3311 -49.0259 -48.9769 -48.8514
   -16.9694  -1.9627  -0.9864  -0.1214   0.1990   1.3252   1.3733   1.6717
     1.8435   2.0768   2.2507   2.3650   2.5320   2.9251   3.0148   3.5843
     3.6975   4.0010   4.1827   4.3533   4.6587   5.1975   5.4433   5.7014
     5.9030   7.7237   8.6348   9.0871   9.8876  11.1645  11.5997  12.3227
    13.2050  13.5038  14.6337  14.9993

          k = 0.4375 0.1083-0.0673 (  4428 PWs)   bands (ev):

   -98.7603 -98.0993 -98.0439 -97.6391 -50.1254 -50.0948 -50.0339 -49.4692
   -49.4444 -49.3947 -49.3745 -49.3310 -49.3214 -49.0270 -48.9390 -48.8542
   -17.0536  -2.3386  -1.1020  -0.0341   0.6296   0.8947   1.0124   1.2967
     1.5001   1.7934   2.1535   2.5614   2.8096   2.9624   3.2504   3.3887
     3.7960   4.0801   4.3271   4.5271   4.8368   5.0666   5.2247   5.6688
     5.7662   6.5216   7.0968   7.9205   9.0880  10.4920  11.1717  12.8581
    13.7722  14.6354  15.5545  16.0639

          k =-0.1250-0.4330-0.0673 (  4428 PWs)   bands (ev):

   -98.7603 -98.0993 -98.0439 -97.6391 -50.1255 -50.0948 -50.0338 -49.4692
   -49.4444 -49.3948 -49.3745 -49.3310 -49.3214 -49.0270 -48.9390 -48.8542
   -17.0535  -2.3387  -1.1020  -0.0344   0.6297   0.8950   1.0126   1.2967
     1.5003   1.7934   2.1534   2.5614   2.8096   2.9624   3.2503   3.3886
     3.7960   4.0798   4.3271   4.5270   4.8366   5.0666   5.2248   5.6685
     5.7662   6.5213   7.0955   7.9218   9.0895  10.4932  11.1707  12.8588
    13.7716  14.6358  15.5547  16.0638

          k = 0.0000-0.3608-0.0673 (  4442 PWs)   bands (ev):

   -98.7619 -98.1010 -98.0455 -97.6408 -50.1018 -50.0994 -50.0132 -49.4498
   -49.4379 -49.3809 -49.3551 -49.3299 -49.3019 -49.0040 -48.9189 -48.8574
   -17.1518  -2.7244  -0.9766  -0.0771   0.3882   0.8441   1.0671   1.1508
     1.5667   1.6257   2.1863   2.6466   2.9292   3.1287   3.1329   3.5661
     3.7331   4.0847   4.1070   4.3077   4.5321   4.8074   4.8969   5.0582
     5.3075   5.6549   5.6702   7.4438   8.6861  10.2055  11.2482  12.9866
    14.7220  15.0302  15.1447  16.1073

          k = 0.8750 0.0000-0.0673 (  4420 PWs)   bands (ev):

   -98.7592 -98.0981 -98.0428 -97.6380 -50.1459 -50.0917 -50.0422 -49.4887
   -49.4555 -49.3959 -49.3851 -49.3323 -49.3292 -49.0466 -48.9471 -48.8522
   -16.9883  -2.0343  -1.3509  -0.1399   0.5342   0.8353   0.9574   1.2637
     1.3500   1.8346   2.1413   2.5227   2.7417   3.1234   3.2384   3.6957
     4.0349   4.3609   4.8307   5.0154   5.1917   5.2829   5.6044   5.7937
     5.8994   7.3605   8.5797   9.1437   9.7547  10.0148  10.6892  11.6205
    12.1628  13.6051  13.8334  16.4060

          k = 0.0000-0.5052-0.0673 (  4396 PWs)   bands (ev):

   -98.7598 -98.0987 -98.0434 -97.6386 -50.1474 -50.0934 -50.0249 -49.4903
   -49.4577 -49.3973 -49.3672 -49.3330 -49.3130 -49.0480 -48.9304 -48.8533
   -17.0229  -2.2058  -1.3897  -0.2445   0.5789   0.7082   0.9152   1.0443
     1.2154   1.5472   2.0884   2.7944   2.9736   3.0584   3.3373   3.6387
     4.4229   4.6040   4.8233   4.9596   5.4496   5.6232   5.6837   5.7709
     6.0899   6.4947   7.1606   7.7985   9.4142  10.8137  11.0031  11.4971
    12.1099  13.4568  14.9728  15.9416

     the Fermi energy is     7.5988 ev

!    total energy              =   -1158.80743984 Ry
     Harris-Foulkes estimate   =   -1158.80744012 Ry
     estimated scf accuracy    <       0.00000035 Ry

     The total energy is the sum of the following terms:

     one-electron contribution =   -6246.15607433 Ry
     hartree contribution      =    3128.13250435 Ry
     xc contribution           =    -113.43171003 Ry
     ewald contribution        =    2088.36053090 Ry
     one-center paw contrib.   =     -15.71130924 Ry
     smearing contrib. (-TS)   =      -0.00138149 Ry

     convergence has been achieved in  13 iterations

     Forces acting on atoms (Ry/au):


     negative rho (up, down):  1.462E-04 0.000E+00
     atom    1 type  1   force =     0.00000000    0.00000081   -0.01982287
     atom    2 type  1   force =     0.00000000    0.00000083    0.00312697
     atom    3 type  1   force =     0.00000000    0.00000387   -0.00300428
     atom    4 type  1   force =     0.00000000    0.00003448    0.01754441
     atom    5 type  2   force =     0.00000000   -0.00016729   -0.13586010
     atom    6 type  3   force =     0.00000000    0.00012732    0.13801586

     Total force =     0.194482     Total SCF correction =     0.003814

     BFGS Geometry Optimization

     number of scf cycles    =   1
     number of bfgs steps    =   0

     energy   new            =   -1158.8074398393 Ry

     new trust radius        =       0.1380159235 bohr
     new conv_thr            =       0.0000010000 Ry


ATOMIC_POSITIONS (alat)
Au       0.000000000   0.000000000   0.000000000    0   0   0
Au       0.500000000   0.288675000   0.816497000    0   0   0
Au       0.000000000   0.577350710   1.632441655
Au      -0.000000000   0.000006327   2.452709749
C        0.500000000   0.288644298   3.048800966
O        0.500001000   0.289698365   3.490171659



     Writing output data file CO_Au_hollow.save
     Check: negative starting charge=   -0.000180
     NEW-OLD atomic charge density approx. for the potential

     Check: negative/imaginary core charge=   -0.000003    0.000000
     Check: negative starting charge=   -0.000178

     negative rho (up, down):  9.939E-05 0.000E+00

     total cpu time spent up to now is     2618.0 secs

     per-process dynamical memory:   342.8 Mb

     Self-consistent Calculation

     iteration #  1     ecut=    40.00 Ry     beta=0.70
     Davidson diagonalization with overlap
     ethr =  1.00E-06,  avg # of iterations =  4.6

     negative rho (up, down):  1.131E-04 0.000E+00

     total cpu time spent up to now is     2932.8 secs

     total energy              =   -1158.63097608 Ry
     Harris-Foulkes estimate   =   -1158.75967517 Ry
     estimated scf accuracy    <       0.18489658 Ry

     iteration #  2     ecut=    40.00 Ry     beta=0.70
     Davidson diagonalization with overlap
     ethr =  2.15E-04,  avg # of iterations =  5.3

     negative rho (up, down):  4.734E-04 0.000E+00

     total cpu time spent up to now is     3161.2 secs

     total energy              =   -1155.88070717 Ry
     Harris-Foulkes estimate   =   -1160.96099630 Ry
     estimated scf accuracy    <      95.71595517 Ry

     iteration #  3     ecut=    40.00 Ry     beta=0.70
     Davidson diagonalization with overlap
     ethr =  2.15E-04,  avg # of iterations =  5.1

     negative rho (up, down):  1.630E-04 0.000E+00

     total cpu time spent up to now is     3401.1 secs

     total energy              =   -1158.69776279 Ry
     Harris-Foulkes estimate   =   -1158.82542039 Ry
     estimated scf accuracy    <       1.31983749 Ry

     iteration #  4     ecut=    40.00 Ry     beta=0.70
     Davidson diagonalization with overlap
     ethr =  2.15E-04,  avg # of iterations =  3.7

     negative rho (up, down):  1.095E-04 0.000E+00

     total cpu time spent up to now is     3565.4 secs

     total energy              =   -1158.76594125 Ry
     Harris-Foulkes estimate   =   -1158.78635480 Ry
     estimated scf accuracy    <       0.16569028 Ry

     iteration #  5     ecut=    40.00 Ry     beta=0.70
     Davidson diagonalization with overlap
     ethr =  1.93E-04,  avg # of iterations =  2.9

     negative rho (up, down):  1.174E-04 0.000E+00

     total cpu time spent up to now is     3717.4 secs

     total energy              =   -1158.77033300 Ry
     Harris-Foulkes estimate   =   -1158.78274274 Ry
     estimated scf accuracy    <       0.06652547 Ry

     iteration #  6     ecut=    40.00 Ry     beta=0.70
     Davidson diagonalization with overlap
     ethr =  7.74E-05,  avg # of iterations =  2.2

     negative rho (up, down):  1.183E-04 0.000E+00

     total cpu time spent up to now is     3859.9 secs

     total energy              =   -1158.77590597 Ry
     Harris-Foulkes estimate   =   -1158.77690675 Ry
     estimated scf accuracy    <       0.00554375 Ry

     iteration #  7     ecut=    40.00 Ry     beta=0.70
     Davidson diagonalization with overlap
     ethr =  6.45E-06,  avg # of iterations =  2.5

     negative rho (up, down):  1.179E-04 0.000E+00

     total cpu time spent up to now is     4012.3 secs

     total energy              =   -1158.77636047 Ry
     Harris-Foulkes estimate   =   -1158.77659730 Ry
     estimated scf accuracy    <       0.00114828 Ry

     iteration #  8     ecut=    40.00 Ry     beta=0.70
     Davidson diagonalization with overlap
     ethr =  1.34E-06,  avg # of iterations =  1.9

     negative rho (up, down):  1.176E-04 0.000E+00

     total cpu time spent up to now is     4154.5 secs

     total energy              =   -1158.77643610 Ry
     Harris-Foulkes estimate   =   -1158.77648410 Ry
     estimated scf accuracy    <       0.00011038 Ry

     iteration #  9     ecut=    40.00 Ry     beta=0.70
     Davidson diagonalization with overlap
     ethr =  1.28E-07,  avg # of iterations =  2.0

     negative rho (up, down):  1.177E-04 0.000E+00

     total cpu time spent up to now is     4321.3 secs

     total energy              =   -1158.77645115 Ry
     Harris-Foulkes estimate   =   -1158.77647617 Ry
     estimated scf accuracy    <       0.00007255 Ry

     iteration # 10     ecut=    40.00 Ry     beta=0.70
     Davidson diagonalization with overlap
     ethr =  8.44E-08,  avg # of iterations =  2.0

     negative rho (up, down):  1.175E-04 0.000E+00

     total cpu time spent up to now is     4484.8 secs

     total energy              =   -1158.77646346 Ry
     Harris-Foulkes estimate   =   -1158.77646612 Ry
     estimated scf accuracy    <       0.00001152 Ry

     iteration # 11     ecut=    40.00 Ry     beta=0.70
     Davidson diagonalization with overlap
     ethr =  1.34E-08,  avg # of iterations =  2.0

     negative rho (up, down):  1.175E-04 0.000E+00

     total cpu time spent up to now is     4641.6 secs

     End of self-consistent calculation

          k = 0.0625 0.1083-0.0673 (  4518 PWs)   bands (ev):

   -99.2539 -98.5555 -98.4911 -98.0624 -50.6009 -50.4832 -50.4693 -49.9014
   -49.7964 -49.7794 -49.7705 -49.7333 -49.7202 -49.3242 -49.3106 -49.2841
   -14.7468  -4.2025  -1.8334  -0.8084  -0.2800   0.3614   1.2044   1.6205
     2.0444   2.0583   2.3389   2.5150   2.5897   2.6503   2.8598   2.9851
     3.1252   3.1619   3.2786   3.3812   3.7436   3.7801   4.0777   4.1917
     4.4485   4.7776   5.0986   5.4362   7.4952  10.2975  10.8747  11.2104
    12.8921  13.4767  14.9249  15.2835

          k = 0.0625 0.2526-0.0673 (  4466 PWs)   bands (ev):

   -99.2514 -98.5530 -98.4886 -98.0599 -50.5937 -50.5354 -50.4839 -49.8920
   -49.8473 -49.7963 -49.7841 -49.7670 -49.7344 -49.3749 -49.3251 -49.2792
   -14.5777  -3.5991  -0.9132  -0.1741   0.4020   0.8712   1.1185   1.3557
     1.6272   1.9463   2.1107   2.3513   2.4431   2.7075   2.7978   2.9389
     3.1569   3.2331   3.5461   3.5779   3.6947   3.9841   4.0861   4.2942
     4.5462   4.9410   5.1616   6.4600   8.5722   9.4396  10.5963  11.8075
    13.8095  14.4013  15.6339  16.2653

          k = 0.0625 0.3969-0.0673 (  4438 PWs)   bands (ev):

   -99.2484 -98.5500 -98.4857 -98.0570 -50.5965 -50.5853 -50.5012 -49.9098
   -49.8868 -49.8325 -49.8116 -49.7702 -49.7509 -49.4340 -49.3421 -49.2735
   -14.3687  -2.8794  -0.2601   0.1789   0.3487   0.5791   1.0369   1.1497
     1.4648   1.7647   2.0999   2.3384   2.5584   2.7365   3.0286   3.1964
     3.5054   3.8072   3.9959   4.0764   4.2906   4.4731   4.7249   4.9787
     5.1479   5.3420   5.7873   7.3592   8.2562  10.1213  10.2984  12.9379
    13.7148  14.6115  15.4929  16.0339

          k = 0.0625 0.5413-0.0673 (  4394 PWs)   bands (ev):

   -99.2467 -98.5483 -98.4840 -98.0553 -50.6309 -50.5807 -50.5110 -49.9426
   -49.9026 -49.8411 -49.8223 -49.7722 -49.7603 -49.4672 -49.3517 -49.2703
   -14.2450  -2.4387  -0.4966   0.1093   0.2631   0.4587   0.7745   1.0025
     1.2930   1.7568   1.9760   2.4508   2.5862   2.9057   3.0330   3.4629
     3.9347   4.1348   4.5024   4.6762   4.9812   5.0426   5.2917   5.4824
     5.5798   6.6165   7.3003   7.9896   9.1624   9.9002  10.2011  10.9945
    11.7855  12.7002  13.9502  15.8650

          k = 0.0625-0.4691-0.0673 (  4416 PWs)   bands (ev):

   -99.2473 -98.5489 -98.4846 -98.0559 -50.6188 -50.5823 -50.5076 -49.9310
   -49.8954 -49.8400 -49.8185 -49.7715 -49.7570 -49.4556 -49.3484 -49.2714
   -14.2889  -2.5998  -0.3732   0.1486   0.2945   0.5069   0.8714   1.0537
     1.3536   1.7687   2.0125   2.3933   2.6164   2.8845   2.9936   3.4155
     3.7052   4.0284   4.3350   4.4993   4.6827   4.9056   5.0090   5.2718
     5.3987   5.9921   6.5686   7.3517   8.8412  10.1068  10.8393  11.4530
    12.4392  13.8115  14.8783  16.0053

          k = 0.0625-0.3248-0.0673 (  4460 PWs)   bands (ev):

   -99.2498 -98.5514 -98.4871 -98.0584 -50.5894 -50.5672 -50.4929 -49.8906
   -49.8760 -49.8141 -49.8018 -49.7689 -49.7430 -49.4057 -49.3339 -49.2762
   -14.4705  -3.2284  -0.4346   0.0725   0.4814   0.6773   1.1804   1.3069
     1.5422   1.7877   2.1507   2.2468   2.4185   2.6695   2.9874   3.0661
     3.3538   3.4224   3.5629   3.7664   3.9959   4.1313   4.4157   4.5710
     4.8402   5.0944   5.3234   6.9844   8.4030   9.6376  10.4298  12.4071
    14.5066  15.1018  15.6541  16.2750

          k = 0.0625-0.1804-0.0673 (  4490 PWs)   bands (ev):

   -99.2528 -98.5544 -98.4900 -98.0613 -50.5978 -50.5059 -50.4756 -49.8970
   -49.8187 -49.7864 -49.7713 -49.7535 -49.7264 -49.3462 -49.3169 -49.2820
   -14.6743  -3.9406  -1.4314  -0.5150   0.0597   0.7221   1.1021   1.4379
     1.8484   2.1711   2.2714   2.3412   2.4504   2.7281   2.8850   2.9436
     3.0567   3.1400   3.2349   3.5951   3.6717   3.8220   4.0102   4.2014
     4.4010   4.8257   5.1115   5.9283   8.1221   9.8237  10.7507  11.4252
    13.2626  13.8511  15.2201  15.7063

          k = 0.0625-0.0361-0.0673 (  4520 PWs)   bands (ev):

   -99.2545 -98.5561 -98.4916 -98.0630 -50.6026 -50.4708 -50.4659 -49.9039
   -49.7837 -49.7758 -49.7712 -49.7216 -49.7169 -49.3121 -49.3073 -49.2853
   -14.7854  -4.3445  -2.0484  -0.9719  -0.4687   0.1529   1.2492   1.7583
     1.9135   2.1618   2.4422   2.5550   2.5638   2.6746   2.7172   3.0795
     3.1740   3.2372   3.2928   3.5152   3.7776   3.7866   4.1009   4.1393
     4.5682   4.7405   5.1091   5.1726   7.0249  10.6199  10.9398  11.0940
    12.7047  13.2873  14.7618  15.0611

          k = 0.1875 0.3248-0.0673 (  4450 PWs)   bands (ev):

   -99.2489 -98.5505 -98.4861 -98.0574 -50.5866 -50.5777 -50.5083 -49.8939
   -49.8798 -49.8301 -49.8097 -49.7693 -49.7577 -49.4159 -49.3489 -49.2743
   -14.4018  -2.9793  -0.0256   0.3414   0.6427   0.8156   1.2264   1.2915
     1.5990   1.7268   1.9319   2.1136   2.2874   2.4521   2.7901   3.0264
     3.1257   3.2971   3.5854   3.7016   4.2164   4.3695   4.5651   4.9963
     5.1241   5.4321   5.9258   7.5187   8.2762   9.9142  10.0821  12.9892
    15.0393  15.4738  15.7580  15.9247

          k = 0.1875 0.4691-0.0673 (  4428 PWs)   bands (ev):

   -99.2467 -98.5483 -98.4840 -98.0553 -50.6092 -50.5806 -50.5330 -49.9213
   -49.8881 -49.8489 -49.8318 -49.7815 -49.7699 -49.4464 -49.3730 -49.2702
   -14.2468  -2.4127   0.0288   0.3679   0.7055   0.8429   1.1197   1.2586
     1.5144   1.7442   1.8389   2.0521   2.4889   2.6932   2.8577   3.0262
     3.3593   3.7148   3.7933   4.0189   4.3669   4.7320   4.9970   5.3985
     5.4918   7.0822   7.3476   8.0319   9.0925   9.8243  11.4151  11.9339
    12.7766  13.9214  14.7997  15.3146

          k = 0.1875 0.6134-0.0673 (  4432 PWs)   bands (ev):

   -99.2462 -98.5478 -98.4835 -98.0548 -50.6162 -50.5792 -50.5392 -49.9281
   -49.8914 -49.8523 -49.8362 -49.7863 -49.7708 -49.4531 -49.3791 -49.2693
   -14.2097  -2.2653  -0.0925   0.3587   0.7281   0.8304   1.0439   1.2823
     1.4367   1.7550   1.8125   1.9951   2.5810   2.7901   2.8736   3.0541
     3.4163   3.8672   4.0917   4.1946   4.5556   4.8015   5.0286   5.3259
     5.6590   7.0165   8.3022   8.8504   9.3415   9.9952  10.8142  11.3641
    12.5163  12.9985  14.0334  15.4102

          k = 0.1875-0.3969-0.0673 (  4450 PWs)   bands (ev):

   -99.2477 -98.5492 -98.4849 -98.0562 -50.5959 -50.5832 -50.5219 -49.9088
   -49.8837 -49.8423 -49.8224 -49.7732 -49.7675 -49.4335 -49.3622 -49.2720
   -14.3147  -2.6669   0.1532   0.3856   0.6669   0.7983   1.1703   1.3151
     1.6079   1.6919   1.9115   2.1069   2.2851   2.5061   2.9356   3.0737
     3.1490   3.3845   3.6303   3.8045   4.2578   4.6695   4.7825   5.2402
     5.3607   6.1756   6.8374   7.7062   8.5590   9.5900  10.7562  13.4125
    14.0200  14.5405  15.3126  15.9704

          k = 0.1875-0.2526-0.0673 (  4452 PWs)   bands (ev):

   -99.2502 -98.5518 -98.4874 -98.0587 -50.5903 -50.5566 -50.4947 -49.8893
   -49.8666 -49.8129 -49.7965 -49.7683 -49.7450 -49.3955 -49.3357 -49.2769
   -14.4941  -3.3049  -0.4666   0.1190   0.5841   0.8825   1.1624   1.3759
     1.5066   1.8678   1.9302   2.2134   2.3078   2.6109   2.7607   2.9853
     3.1946   3.2856   3.5642   3.6387   3.9727   4.1265   4.3611   4.5633
     4.8730   5.0134   5.3526   6.9369   8.5245   9.6059  10.2887  12.2996
    14.3566  14.9406  16.0022  16.6525

          k = 0.1875-0.1083-0.0673 (  4480 PWs)   bands (ev):

   -99.2523 -98.5539 -98.4895 -98.0608 -50.5964 -50.5172 -50.4776 -49.8952
   -49.8299 -49.7878 -49.7744 -49.7618 -49.7282 -49.3572 -49.3189 -49.2810
   -14.6406  -3.8214  -1.2518  -0.3982   0.1825   0.8365   1.0176   1.4531
     1.7535   2.0922   2.2510   2.3472   2.4986   2.7732   2.7880   2.9116
     3.1565   3.1617   3.3068   3.6211   3.6217   3.8250   4.0467   4.1510
     4.5684   4.7203   5.1902   6.1074   8.3264   9.6174  10.7542  11.5266
    13.4440  14.0354  15.3584  15.8971

          k = 0.3125 0.5413-0.0673 (  4434 PWs)   bands (ev):

   -99.2458 -98.5473 -98.4831 -98.0543 -50.5940 -50.5779 -50.5735 -49.9066
   -49.8869 -49.8790 -49.8329 -49.8105 -49.7707 -49.4320 -49.4121 -49.2684
   -14.1770  -2.1098   0.3250   0.5966   0.6807   1.0512   1.1978   1.4203
     1.4881   1.7705   1.9848   2.0001   2.3222   2.6179   2.7053   3.2553
     3.3937   3.4479   3.7393   4.0531   4.1527   4.8259   4.9849   5.1081
     5.8651   7.0944   8.1257   9.4506  10.4775  10.6071  10.8332  12.1814
    12.4448  13.2328  13.9388  14.8219

          k = 0.3125 0.6856-0.0673 (  4444 PWs)   bands (ev):

   -99.2461 -98.5477 -98.4834 -98.0547 -50.6048 -50.5788 -50.5538 -49.9169
   -49.8848 -49.8671 -49.8330 -49.7986 -49.7705 -49.4422 -49.3932 -49.2690
   -14.2016  -2.2207   0.1832   0.5032   0.7611   0.9576   1.2143   1.3306
     1.5336   1.7540   1.8655   2.0043   2.4327   2.6139   2.7285   3.1691
     3.2928   3.5876   3.7670   4.0049   4.2318   4.7756   5.0284   5.3070
     5.7029   7.2080   8.1784   8.5252   9.4581  10.7385  11.1916  11.9050
    12.7941  13.1436  14.2474  14.6195

          k = 0.3125-0.3248-0.0673 (  4428 PWs)   bands (ev):

   -99.2475 -98.5491 -98.4848 -98.0561 -50.6062 -50.5829 -50.5147 -49.9187
   -49.8885 -49.8387 -49.8232 -49.7708 -49.7634 -49.4434 -49.3552 -49.2718
   -14.3056  -2.6453  -0.1242   0.2706   0.4982   0.6949   1.0434   1.1660
     1.5237   1.7185   1.8963   2.2291   2.5419   2.7404   2.9650   3.0765
     3.4697   3.7354   3.9036   4.1281   4.4187   4.6743   4.8007   5.2624
     5.3365   6.1021   6.7182   7.5200   8.6791   9.8155  10.7814  12.4545
    13.3769  14.2793  15.2200  16.2598

          k = 0.3125-0.1804-0.0673 (  4442 PWs)   bands (ev):

   -99.2492 -98.5508 -98.4865 -98.0578 -50.5877 -50.5823 -50.4941 -49.8978
   -49.8839 -49.8233 -49.8048 -49.7698 -49.7441 -49.4203 -49.3351 -49.2751
   -14.4265  -3.0817  -0.3651   0.0741   0.3846   0.5653   1.0862   1.1978
     1.5100   1.7958   2.2765   2.2922   2.5135   2.7193   3.0230   3.2104
     3.4588   3.7672   3.8062   3.8985   4.0987   4.3908   4.4604   4.6218
     4.8864   5.2247   5.3244   7.1240   8.2567   9.8016  10.4706  12.6542
    14.6298  14.7715  15.3922  15.9201

          k = 0.4375 0.7578-0.0673 (  4420 PWs)   bands (ev):

   -99.2465 -98.5480 -98.4838 -98.0550 -50.6265 -50.5798 -50.5230 -49.9383
   -49.8988 -49.8403 -49.8341 -49.7723 -49.7708 -49.4630 -49.3633 -49.2698
   -14.2248  -2.3440  -0.3493   0.2054   0.4637   0.6324   0.8813   1.1005
     1.4690   1.6568   1.8336   2.2798   2.5832   2.8197   2.9905   3.3457
     3.6588   3.9793   4.4108   4.6171   4.7980   4.8503   5.1781   5.3734
     5.5946   6.8366   8.1461   8.7122   9.3247   9.4394  10.2651  11.2535
    11.7829  13.2348  13.4378  16.0322

          k = 0.4375-0.2526-0.0673 (  4396 PWs)   bands (ev):

   -99.2470 -98.5486 -98.4843 -98.0556 -50.6280 -50.5815 -50.5058 -49.9399
   -49.9011 -49.8413 -49.8167 -49.7723 -49.7553 -49.4644 -49.3466 -49.2709
   -14.2675  -2.5290  -0.5064   0.0903   0.2058   0.4077   0.7763   0.9759
     1.2639   1.7698   2.0995   2.3930   2.7056   2.9124   3.0234   3.4702
     4.0443   4.2052   4.4447   4.4951   5.0162   5.1781   5.2726   5.3302
     5.6727   6.1033   6.7222   7.3686   9.0627  10.2305  10.4281  11.1684
    11.7227  13.0761  14.6065  15.5875

          k = 0.1250 0.0000-0.0673 (  4518 PWs)   bands (ev):

   -99.2539 -98.5555 -98.4911 -98.0624 -50.6009 -50.4832 -50.4693 -49.9014
   -49.7964 -49.7794 -49.7705 -49.7333 -49.7202 -49.3242 -49.3107 -49.2841
   -14.7468  -4.2025  -1.8334  -0.8083  -0.2800   0.3614   1.2042   1.6205
     2.0443   2.0584   2.3389   2.5149   2.5897   2.6503   2.8598   2.9851
     3.1251   3.1623   3.2784   3.3812   3.7437   3.7799   4.0778   4.1918
     4.4485   4.7775   5.0986   5.4362   7.4953  10.2969  10.8721  11.2129
    12.8923  13.4769  14.9249  15.2839

          k =-0.1875 0.1804-0.0673 (  4466 PWs)   bands (ev):

   -99.2514 -98.5530 -98.4886 -98.0599 -50.5937 -50.5354 -50.4839 -49.8920
   -49.8473 -49.7963 -49.7841 -49.7670 -49.7344 -49.3749 -49.3251 -49.2792
   -14.5777  -3.5991  -0.9131  -0.1740   0.4020   0.8707   1.1185   1.3560
     1.6273   1.9463   2.1107   2.3514   2.4429   2.7075   2.7978   2.9390
     3.1568   3.2332   3.5461   3.5779   3.6948   3.9842   4.0861   4.2942
     4.5463   4.9410   5.1617   6.4605   8.5718   9.4378  10.5971  11.8077
    13.8096  14.4014  15.6340  16.2655

          k = 0.2500 0.0722-0.0673 (  4466 PWs)   bands (ev):

   -99.2514 -98.5530 -98.4886 -98.0599 -50.5937 -50.5354 -50.4840 -49.8920
   -49.8473 -49.7963 -49.7841 -49.7670 -49.7344 -49.3749 -49.3251 -49.2792
   -14.5777  -3.5991  -0.9131  -0.1740   0.4019   0.8707   1.1185   1.3559
     1.6273   1.9464   2.1107   2.3512   2.4433   2.7076   2.7978   2.9389
     3.1569   3.2329   3.5460   3.5779   3.6947   3.9843   4.0862   4.2942
     4.5462   4.9413   5.1617   6.4607   8.5716   9.4382  10.5946  11.8092
    13.8099  14.4017  15.6341  16.2661

          k =-0.3125 0.2526-0.0673 (  4438 PWs)   bands (ev):

   -99.2484 -98.5500 -98.4857 -98.0570 -50.5965 -50.5853 -50.5013 -49.9098
   -49.8868 -49.8325 -49.8116 -49.7702 -49.7509 -49.4340 -49.3421 -49.2735
   -14.3687  -2.8794  -0.2606   0.1791   0.3494   0.5791   1.0371   1.1496
     1.4642   1.7647   2.0998   2.3382   2.5584   2.7364   3.0285   3.1964
     3.5055   3.8075   3.9958   4.0765   4.2906   4.4732   4.7250   4.9787
     5.1480   5.3421   5.7882   7.3608   8.2522  10.1224  10.2974  12.9380
    13.7149  14.6112  15.4929  16.0340

          k = 0.3750 0.1443-0.0673 (  4438 PWs)   bands (ev):

   -99.2484 -98.5500 -98.4857 -98.0570 -50.5965 -50.5853 -50.5013 -49.9098
   -49.8868 -49.8325 -49.8116 -49.7702 -49.7509 -49.4340 -49.3421 -49.2735
   -14.3687  -2.8794  -0.2605   0.1789   0.3494   0.5790   1.0370   1.1496
     1.4643   1.7647   2.0999   2.3383   2.5585   2.7364   3.0287   3.1963
     3.5052   3.8073   3.9959   4.0767   4.2906   4.4731   4.7249   4.9787
     5.1480   5.3421   5.7883   7.3607   8.2525  10.1200  10.2991  12.9383
    13.7150  14.6109  15.4931  16.0347

          k =-0.4375 0.3248-0.0673 (  4394 PWs)   bands (ev):

   -99.2467 -98.5483 -98.4840 -98.0553 -50.6308 -50.5807 -50.5110 -49.9427
   -49.9026 -49.8411 -49.8223 -49.7722 -49.7603 -49.4672 -49.3517 -49.2703
   -14.2450  -2.4386  -0.4974   0.1110   0.2634   0.4583   0.7748   1.0016
     1.2923   1.7569   1.9761   2.4508   2.5861   2.9059   3.0328   3.4629
     3.9346   4.1348   4.5026   4.6764   4.9812   5.0425   5.2917   5.4824
     5.5798   6.6186   7.3000   7.9891   9.1622   9.8987  10.1996  10.9940
    11.7851  12.7013  13.9502  15.8652

          k = 0.5000 0.2165-0.0673 (  4394 PWs)   bands (ev):

   -99.2467 -98.5483 -98.4840 -98.0553 -50.6308 -50.5807 -50.5110 -49.9427
   -49.9026 -49.8411 -49.8223 -49.7722 -49.7603 -49.4672 -49.3517 -49.2703
   -14.2450  -2.4386  -0.4974   0.1110   0.2634   0.4583   0.7748   1.0016
     1.2923   1.7569   1.9761   2.4508   2.5861   2.9059   3.0328   3.4628
     3.9346   4.1348   4.5026   4.6764   4.9812   5.0425   5.2917   5.4823
     5.5798   6.6186   7.2999   7.9892   9.1623   9.8993  10.1990  10.9939
    11.7852  12.7016  13.9498  15.8652

          k = 0.4375-0.1804-0.0673 (  4416 PWs)   bands (ev):

   -99.2473 -98.5489 -98.4846 -98.0559 -50.6188 -50.5823 -50.5076 -49.9310
   -49.8954 -49.8400 -49.8185 -49.7715 -49.7570 -49.4556 -49.3484 -49.2714
   -14.2889  -2.5998  -0.3740   0.1497   0.2950   0.5067   0.8716   1.0532
     1.3530   1.7688   2.0126   2.3932   2.6163   2.8845   2.9938   3.4151
     3.7052   4.0286   4.3352   4.4993   4.6826   4.9056   5.0090   5.2718
     5.3989   5.9928   6.5703   7.3506   8.8393  10.1063  10.8394  11.4519
    12.4394  13.8120  14.8774  16.0054

          k =-0.3750-0.2887-0.0673 (  4416 PWs)   bands (ev):

   -99.2473 -98.5489 -98.4846 -98.0559 -50.6188 -50.5823 -50.5076 -49.9310
   -49.8954 -49.8400 -49.8185 -49.7714 -49.7570 -49.4556 -49.3484 -49.2714
   -14.2889  -2.5998  -0.3740   0.1498   0.2950   0.5067   0.8717   1.0532
     1.3529   1.7688   2.0125   2.3932   2.6163   2.8846   2.9935   3.4154
     3.7050   4.0288   4.3351   4.4994   4.6826   4.9057   5.0090   5.2719
     5.3988   5.9928   6.5702   7.3507   8.8389  10.1073  10.8387  11.4519
    12.4395  13.8120  14.8777  16.0055

          k = 0.3125-0.1083-0.0673 (  4460 PWs)   bands (ev):

   -99.2498 -98.5514 -98.4871 -98.0584 -50.5894 -50.5672 -50.4930 -49.8906
   -49.8760 -49.8141 -49.8017 -49.7689 -49.7430 -49.4057 -49.3340 -49.2762
   -14.4705  -3.2284  -0.4346   0.0725   0.4814   0.6772   1.1804   1.3069
     1.5421   1.7877   2.1506   2.2467   2.4185   2.6696   2.9873   3.0663
     3.3538   3.4221   3.5629   3.7666   3.9959   4.1316   4.4157   4.5710
     4.8402   5.0947   5.3239   6.9857   8.4002   9.6373  10.4288  12.4082
    14.5072  15.1021  15.6535  16.2753

          k =-0.2500-0.2165-0.0673 (  4460 PWs)   bands (ev):

   -99.2498 -98.5514 -98.4871 -98.0584 -50.5894 -50.5672 -50.4929 -49.8906
   -49.8760 -49.8141 -49.8018 -49.7689 -49.7430 -49.4057 -49.3340 -49.2762
   -14.4705  -3.2284  -0.4346   0.0725   0.4815   0.6773   1.1804   1.3069
     1.5421   1.7877   2.1506   2.2467   2.4184   2.6695   2.9874   3.0662
     3.3538   3.4226   3.5629   3.7664   3.9959   4.1314   4.4158   4.5711
     4.8402   5.0945   5.3238   6.9855   8.4003   9.6371  10.4303  12.4074
    14.5069  15.1018  15.6536  16.2759

          k = 0.1875-0.0361-0.0673 (  4490 PWs)   bands (ev):

   -99.2528 -98.5544 -98.4900 -98.0613 -50.5978 -50.5059 -50.4756 -49.8970
   -49.8187 -49.7864 -49.7713 -49.7535 -49.7264 -49.3462 -49.3169 -49.2820
   -14.6743  -3.9406  -1.4314  -0.5149   0.0597   0.7221   1.1016   1.4381
     1.8484   2.1713   2.2713   2.3413   2.4505   2.7279   2.8851   2.9437
     3.0569   3.1400   3.2347   3.5951   3.6717   3.8220   4.0102   4.2016
     4.4011   4.8257   5.1115   5.9286   8.1222   9.8223  10.7483  11.4275
    13.2629  13.8514  15.2202  15.7071

          k =-0.1250-0.1443-0.0673 (  4490 PWs)   bands (ev):

   -99.2528 -98.5544 -98.4900 -98.0613 -50.5978 -50.5059 -50.4756 -49.8970
   -49.8187 -49.7864 -49.7713 -49.7535 -49.7264 -49.3462 -49.3169 -49.2820
   -14.6743  -3.9406  -1.4314  -0.5150   0.0597   0.7221   1.1017   1.4382
     1.8484   2.1711   2.2714   2.3412   2.4504   2.7280   2.8850   2.9436
     3.0567   3.1400   3.2349   3.5951   3.6717   3.8221   4.0102   4.2014
     4.4011   4.8257   5.1115   5.9284   8.1221   9.8224  10.7514  11.4253
    13.2626  13.8511  15.2201  15.7065

          k = 0.0000-0.0722-0.0673 (  4520 PWs)   bands (ev):

   -99.2545 -98.5561 -98.4916 -98.0630 -50.6026 -50.4708 -50.4659 -49.9039
   -49.7836 -49.7758 -49.7711 -49.7216 -49.7169 -49.3121 -49.3073 -49.2853
   -14.7854  -4.3445  -2.0484  -0.9719  -0.4687   0.1529   1.2493   1.7583
     1.9135   2.1618   2.4422   2.5550   2.5638   2.6746   2.7172   3.0795
     3.1740   3.2369   3.2930   3.5152   3.7778   3.7865   4.1008   4.1394
     4.5681   4.7404   5.1091   5.1726   7.0249  10.6208  10.9400  11.0931
    12.7046  13.2873  14.7619  15.0609

          k = 0.3750 0.0000-0.0673 (  4450 PWs)   bands (ev):

   -99.2489 -98.5505 -98.4861 -98.0574 -50.5866 -50.5777 -50.5083 -49.8940
   -49.8798 -49.8301 -49.8097 -49.7694 -49.7577 -49.4159 -49.3489 -49.2743
   -14.4018  -2.9793  -0.0254   0.3412   0.6427   0.8153   1.2266   1.2915
     1.5990   1.7268   1.9319   2.1142   2.2874   2.4521   2.7901   3.0261
     3.1257   3.2973   3.5851   3.7015   4.2168   4.3693   4.5651   4.9964
     5.1241   5.4321   5.9263   7.5196   8.2750   9.9110  10.0837  12.9901
    15.0401  15.4738  15.7583  15.9233

          k =-0.3125 0.3969-0.0673 (  4428 PWs)   bands (ev):

   -99.2467 -98.5483 -98.4840 -98.0553 -50.6092 -50.5806 -50.5330 -49.9213
   -49.8881 -49.8489 -49.8318 -49.7815 -49.7699 -49.4464 -49.3730 -49.2702
   -14.2468  -2.4127   0.0286   0.3683   0.7056   0.8429   1.1197   1.2587
     1.5142   1.7440   1.8390   2.0520   2.4889   2.6930   2.8576   3.0262
     3.3596   3.7148   3.7933   4.0191   4.3669   4.7323   4.9968   5.3984
     5.4919   7.0834   7.3474   8.0304   9.0927   9.8240  11.4153  11.9328
    12.7765  13.9214  14.8007  15.3140

          k = 0.5000 0.0722-0.0673 (  4428 PWs)   bands (ev):

   -99.2467 -98.5483 -98.4840 -98.0553 -50.6092 -50.5806 -50.5330 -49.9213
   -49.8881 -49.8489 -49.8318 -49.7815 -49.7699 -49.4464 -49.3730 -49.2702
   -14.2469  -2.4127   0.0287   0.3680   0.7057   0.8429   1.1197   1.2587
     1.5142   1.7444   1.8391   2.0521   2.4889   2.6929   2.8576   3.0262
     3.3593   3.7149   3.7934   4.0191   4.3669   4.7322   4.9966   5.3987
     5.4918   7.0832   7.3467   8.0314   9.0932   9.8230  11.4158  11.9330
    12.7763  13.9205  14.8005  15.3137

          k =-0.4375 0.4691-0.0673 (  4432 PWs)   bands (ev):

   -99.2462 -98.5478 -98.4835 -98.0548 -50.6161 -50.5792 -50.5392 -49.9282
   -49.8914 -49.8523 -49.8362 -49.7863 -49.7708 -49.4531 -49.3791 -49.2693
   -14.2097  -2.2653  -0.0925   0.3589   0.7283   0.8302   1.0438   1.2823
     1.4366   1.7549   1.8128   1.9951   2.5804   2.7900   2.8738   3.0539
     3.4163   3.8675   4.0917   4.1948   4.5557   4.8014   5.0285   5.3259
     5.6592   7.0162   8.3023   8.8512   9.3414   9.9949  10.8128  11.3639
    12.5151  12.9991  14.0333  15.4098

          k = 0.6250 0.1443-0.0673 (  4432 PWs)   bands (ev):

   -99.2462 -98.5478 -98.4835 -98.0548 -50.6161 -50.5792 -50.5392 -49.9282
   -49.8914 -49.8523 -49.8362 -49.7863 -49.7708 -49.4531 -49.3791 -49.2693
   -14.2097  -2.2653  -0.0925   0.3590   0.7282   0.8303   1.0438   1.2823
     1.4366   1.7548   1.8128   1.9951   2.5804   2.7902   2.8736   3.0540
     3.4164   3.8675   4.0917   4.1947   4.5557   4.8015   5.0285   5.3259
     5.6591   7.0167   8.3019   8.8506   9.3418   9.9950  10.8129  11.3638
    12.5158  12.9980  14.0345  15.4099

          k = 0.4375-0.0361-0.0673 (  4450 PWs)   bands (ev):

   -99.2477 -98.5492 -98.4849 -98.0562 -50.5959 -50.5832 -50.5220 -49.9088
   -49.8837 -49.8423 -49.8224 -49.7732 -49.7675 -49.4335 -49.3622 -49.2720
   -14.3147  -2.6669   0.1532   0.3855   0.6670   0.7982   1.1703   1.3151
     1.6078   1.6919   1.9120   2.1070   2.2852   2.5061   2.9351   3.0738
     3.1491   3.3846   3.6301   3.8045   4.2580   4.6697   4.7821   5.2405
     5.3607   6.1758   6.8383   7.7052   8.5593   9.5879  10.7571  13.4124
    14.0203  14.5397  15.3119  15.9708

          k =-0.2500-0.3608-0.0673 (  4450 PWs)   bands (ev):

   -99.2477 -98.5492 -98.4849 -98.0562 -50.5959 -50.5832 -50.5219 -49.9088
   -49.8837 -49.8423 -49.8224 -49.7732 -49.7675 -49.4335 -49.3622 -49.2720
   -14.3147  -2.6669   0.1528   0.3861   0.6670   0.7983   1.1702   1.3151
     1.6078   1.6919   1.9113   2.1069   2.2851   2.5061   2.9356   3.0737
     3.1491   3.3846   3.6299   3.8048   4.2578   4.6697   4.7824   5.2402
     5.3607   6.1757   6.8379   7.7061   8.5578   9.5905  10.7560  13.4123
    14.0199  14.5405  15.3128  15.9703

          k = 0.3125 0.0361-0.0673 (  4452 PWs)   bands (ev):

   -99.2502 -98.5518 -98.4874 -98.0587 -50.5903 -50.5566 -50.4948 -49.8893
   -49.8666 -49.8129 -49.7965 -49.7683 -49.7450 -49.3955 -49.3357 -49.2769
   -14.4941  -3.3049  -0.4665   0.1190   0.5839   0.8824   1.1623   1.3759
     1.5066   1.8678   1.9303   2.2134   2.3082   2.6110   2.7608   2.9855
     3.1943   3.2855   3.5643   3.6385   3.9726   4.1270   4.3609   4.5633
     4.8730   5.0135   5.3529   6.9374   8.5238   9.6065  10.2859  12.3009
    14.3571  14.9412  16.0024  16.6518

          k =-0.1250-0.2887-0.0673 (  4452 PWs)   bands (ev):

   -99.2502 -98.5518 -98.4874 -98.0587 -50.5903 -50.5567 -50.4947 -49.8893
   -49.8666 -49.8129 -49.7965 -49.7683 -49.7450 -49.3955 -49.3357 -49.2769
   -14.4941  -3.3049  -0.4666   0.1190   0.5841   0.8826   1.1623   1.3759
     1.5066   1.8678   1.9303   2.2134   2.3079   2.6110   2.7607   2.9853
     3.1946   3.2856   3.5643   3.6386   3.9726   4.1265   4.3610   4.5633
     4.8730   5.0134   5.3525   6.9365   8.5255   9.6063  10.2882  12.2995
    14.3566  14.9407  16.0023  16.6522

          k = 0.0000-0.2165-0.0673 (  4480 PWs)   bands (ev):

   -99.2523 -98.5539 -98.4895 -98.0608 -50.5964 -50.5172 -50.4776 -49.8952
   -49.8299 -49.7878 -49.7744 -49.7618 -49.7282 -49.3572 -49.3189 -49.2810
   -14.6406  -3.8214  -1.2518  -0.3983   0.1825   0.8366   1.0182   1.4527
     1.7534   2.0921   2.2509   2.3473   2.4986   2.7732   2.7881   2.9116
     3.1565   3.1617   3.3068   3.6211   3.6216   3.8250   4.0467   4.1510
     4.5683   4.7201   5.1902   6.1070   8.3263   9.6198  10.7543  11.5255
    13.4438  14.0352  15.3583  15.8965

          k = 0.6250 0.0000-0.0673 (  4434 PWs)   bands (ev):

   -99.2458 -98.5473 -98.4831 -98.0543 -50.5940 -50.5779 -50.5735 -49.9067
   -49.8869 -49.8790 -49.8329 -49.8105 -49.7707 -49.4320 -49.4121 -49.2684
   -14.1770  -2.1098   0.3250   0.5972   0.6800   1.0512   1.1979   1.4204
     1.4881   1.7704   1.9848   2.0002   2.3222   2.6175   2.7053   3.2553
     3.3939   3.4479   3.7392   4.0532   4.1527   4.8258   4.9849   5.1082
     5.8654   7.0934   8.1266   9.4504  10.4774  10.6068  10.8338  12.1804
    12.4448  13.2334  13.9370  14.8225

          k =-0.4375 0.6134-0.0673 (  4444 PWs)   bands (ev):

   -99.2461 -98.5477 -98.4834 -98.0547 -50.6048 -50.5788 -50.5538 -49.9170
   -49.8848 -49.8671 -49.8330 -49.7986 -49.7705 -49.4422 -49.3932 -49.2690
   -14.2016  -2.2207   0.1831   0.5034   0.7610   0.9575   1.2144   1.3305
     1.5338   1.7542   1.8655   2.0044   2.4327   2.6139   2.7281   3.1692
     3.2928   3.5876   3.7671   4.0050   4.2318   4.7755   5.0283   5.3072
     5.7030   7.2066   8.1798   8.5257   9.4575  10.7386  11.1919  11.9047
    12.7940  13.1432  14.2459  14.6202

          k = 0.7500 0.0722-0.0673 (  4444 PWs)   bands (ev):

   -99.2461 -98.5477 -98.4834 -98.0547 -50.6048 -50.5788 -50.5538 -49.9169
   -49.8848 -49.8671 -49.8330 -49.7986 -49.7705 -49.4422 -49.3932 -49.2690
   -14.2016  -2.2207   0.1829   0.5038   0.7609   0.9575   1.2143   1.3305
     1.5337   1.7541   1.8654   2.0043   2.4329   2.6140   2.7286   3.1691
     3.2926   3.5876   3.7672   4.0047   4.2319   4.7755   5.0285   5.3071
     5.7028   7.2080   8.1787   8.5249   9.4581  10.7384  11.1921  11.9051
    12.7943  13.1442  14.2470  14.6190

          k = 0.4375 0.1083-0.0673 (  4428 PWs)   bands (ev):

   -99.2475 -98.5491 -98.4848 -98.0561 -50.6061 -50.5829 -50.5147 -49.9187
   -49.8885 -49.8387 -49.8232 -49.7708 -49.7634 -49.4434 -49.3552 -49.2718
   -14.3056  -2.6453  -0.1240   0.2702   0.4983   0.6949   1.0433   1.1661
     1.5237   1.7186   1.8965   2.2291   2.5420   2.7403   2.9652   3.0764
     3.4693   3.7355   3.9035   4.1282   4.4188   4.6741   4.8006   5.2625
     5.3365   6.1022   6.7184   7.5196   8.6802   9.8133  10.7826  12.4543
    13.3770  14.2792  15.2193  16.2599

          k =-0.1250-0.4330-0.0673 (  4428 PWs)   bands (ev):

   -99.2475 -98.5491 -98.4848 -98.0561 -50.6062 -50.5829 -50.5147 -49.9186
   -49.8885 -49.8387 -49.8232 -49.7708 -49.7634 -49.4434 -49.3552 -49.2718
   -14.3056  -2.6454  -0.1235   0.2696   0.4980   0.6950   1.0432   1.1663
     1.5241   1.7186   1.8963   2.2292   2.5419   2.7405   2.9651   3.0765
     3.4696   3.7352   3.9035   4.1281   4.4187   4.6742   4.8007   5.2623
     5.3365   6.1018   6.7169   7.5207   8.6814   9.8144  10.7820  12.4551
    13.3765  14.2796  15.2196  16.2605

          k = 0.0000-0.3608-0.0673 (  4442 PWs)   bands (ev):

   -99.2492 -98.5508 -98.4865 -98.0578 -50.5877 -50.5823 -50.4941 -49.8978
   -49.8839 -49.8233 -49.8048 -49.7698 -49.7441 -49.4203 -49.3351 -49.2751
   -14.4265  -3.0818  -0.3649   0.0742   0.3843   0.5652   1.0862   1.1978
     1.5102   1.7958   2.2767   2.2923   2.5135   2.7193   3.0230   3.2104
     3.4588   3.7672   3.8060   3.8984   4.0986   4.3907   4.4604   4.6217
     4.8864   5.2247   5.3236   7.1223   8.2605   9.8020  10.4707  12.6535
    14.6302  14.7710  15.3925  15.9203

          k = 0.8750 0.0000-0.0673 (  4420 PWs)   bands (ev):

   -99.2465 -98.5480 -98.4838 -98.0550 -50.6265 -50.5798 -50.5230 -49.9383
   -49.8989 -49.8403 -49.8341 -49.7723 -49.7708 -49.4630 -49.3633 -49.2698
   -14.2248  -2.3440  -0.3488   0.2041   0.4636   0.6327   0.8810   1.1013
     1.4694   1.6568   1.8331   2.2799   2.5834   2.8198   2.9904   3.3460
     3.6588   3.9790   4.4108   4.6168   4.7981   4.8503   5.1781   5.3733
     5.5947   6.8356   8.1462   8.7122   9.3247   9.4395  10.2672  11.2547
    11.7828  13.2333  13.4387  16.0319

[...]
     3.5551   3.7811   4.0728   4.1621   4.3704   4.6038   4.9162   5.1287
     5.3108   5.5190   5.9027   7.6149   8.6414  10.3384  10.8221  13.1118
    13.9041  14.7821  15.4952  15.9624

          k = 0.3750 0.1443-0.0673 (  4438 PWs)   bands (ev):

   -99.4578 -98.3060 -98.2521 -97.8835 -50.8104 -50.8074 -50.7149 -49.6597
   -49.6233 -49.5842 -49.5650 -49.5234 -49.5207 -49.2610 -49.1696 -49.0976
   -16.0721  -3.4331  -0.9282  -0.2090   0.5076   0.7647   1.1291   1.1540
     1.3841   1.4706   1.9027   2.3328   2.6738   2.9351   3.0414   3.3475
     3.5552   3.7829   4.0726   4.1619   4.3707   4.6037   4.9160   5.1289
     5.3104   5.5191   5.9028   7.6150   8.6421  10.3399  10.8201  13.1120
    13.9042  14.7818  15.4953  15.9624

          k =-0.4375 0.3248-0.0673 (  4394 PWs)   bands (ev):

   -99.4561 -98.3043 -98.2505 -97.8818 -50.8443 -50.8036 -50.7245 -49.6934
   -49.6546 -49.5793 -49.5750 -49.5304 -49.5227 -49.2937 -49.1792 -49.0947
   -15.9614  -3.0670  -1.4277  -0.2147   0.4899   0.7502   0.9724   1.0181
     1.1454   1.3968   1.8989   2.5303   2.7826   2.9252   3.1187   3.4522
     4.0382   4.1988   4.5092   4.7399   5.1208   5.2700   5.4758   5.5651
     5.7537   6.7901   7.4727   8.1568   9.3795  10.4043  10.5876  11.3516
    12.1788  12.7359  14.0233  15.8338

          k = 0.5000 0.2165-0.0673 (  4394 PWs)   bands (ev):

   -99.4561 -98.3043 -98.2505 -97.8818 -50.8442 -50.8036 -50.7246 -49.6934
   -49.6546 -49.5793 -49.5750 -49.5304 -49.5227 -49.2937 -49.1792 -49.0947
   -15.9614  -3.0668  -1.4278  -0.2147   0.4904   0.7502   0.9728   1.0167
     1.1453   1.3969   1.8990   2.5303   2.7828   2.9247   3.1189   3.4522
     4.0379   4.1988   4.5095   4.7402   5.1208   5.2700   5.4759   5.5652
     5.7536   6.7904   7.4728   8.1569   9.3797  10.4045  10.5874  11.3516
    12.1786  12.7362  14.0224  15.8339

          k = 0.4375-0.1804-0.0673 (  4416 PWs)   bands (ev):

   -99.4567 -98.3049 -98.2511 -97.8824 -50.8321 -50.8052 -50.7212 -49.6816
   -49.6433 -49.5815 -49.5715 -49.5271 -49.5227 -49.2823 -49.1758 -49.0957
   -16.0006  -3.1992  -1.2398  -0.2129   0.5209   0.7708   1.0331   1.0803
     1.2309   1.4247   1.8958   2.4484   2.7736   2.9230   3.0728   3.4399
     3.8089   4.1100   4.3309   4.5480   4.8285   5.0672   5.1764   5.3859
     5.5596   6.2311   6.7395   7.5975   9.1404  10.5963  11.0137  11.8968
    12.6661  13.9020  14.9824  16.0421

          k =-0.3750-0.2887-0.0673 (  4416 PWs)   bands (ev):

   -99.4567 -98.3049 -98.2511 -97.8824 -50.8322 -50.8052 -50.7211 -49.6816
   -49.6433 -49.5815 -49.5715 -49.5271 -49.5227 -49.2823 -49.1758 -49.0957
   -16.0006  -3.1995  -1.2396  -0.2129   0.5195   0.7706   1.0324   1.0841
     1.2309   1.4244   1.8954   2.4487   2.7735   2.9235   3.0728   3.4398
     3.8094   4.1091   4.3306   4.5475   4.8285   5.0672   5.1763   5.3859
     5.5598   6.2310   6.7395   7.5969   9.1401  10.5958  11.0145  11.8974
    12.6661  13.9020  14.9833  16.0430

          k = 0.3125-0.1083-0.0673 (  4460 PWs)   bands (ev):

   -99.4592 -98.3074 -98.2536 -97.8849 -50.8121 -50.7801 -50.7066 -49.6312
   -49.6056 -49.5790 -49.5566 -49.5241 -49.5127 -49.2329 -49.1614 -49.1002
   -16.1635  -3.7385  -0.6355  -0.1693   0.2413   0.7351   1.1086   1.2672
     1.4973   1.6251   1.9560   2.2222   2.5815   2.7793   3.0359   3.2130
     3.3354   3.4735   3.5714   3.8149   4.1944   4.2637   4.5757   4.7107
     5.0159   5.2317   5.4036   7.1190   8.8665   9.8271  11.0035  12.4765
    14.5424  15.0517  15.8089  16.3122

          k =-0.2500-0.2165-0.0673 (  4460 PWs)   bands (ev):

   -99.4592 -98.3074 -98.2536 -97.8849 -50.8121 -50.7804 -50.7062 -49.6312
   -49.6056 -49.5790 -49.5566 -49.5240 -49.5127 -49.2329 -49.1614 -49.1002
   -16.1635  -3.7387  -0.6356  -0.1694   0.2412   0.7336   1.1094   1.2690
     1.4970   1.6261   1.9564   2.2223   2.5815   2.7793   3.0359   3.2124
     3.3335   3.4733   3.5718   3.8151   4.1947   4.2639   4.5758   4.7105
     5.0160   5.2321   5.4033   7.1192   8.8660   9.8266  11.0045  12.4762
    14.5422  15.0516  15.8088  16.3126

          k = 0.1875-0.0361-0.0673 (  4490 PWs)   bands (ev):

   -99.4622 -98.3104 -98.2565 -97.8878 -50.8201 -50.7185 -50.6893 -49.6105
   -49.5703 -49.5399 -49.5303 -49.5220 -49.4957 -49.1737 -49.1444 -49.1056
   -16.3474  -4.4068  -1.0256  -0.6518   0.1536   0.6491   0.9503   1.0421
     1.4137   1.9257   2.2049   2.5237   2.5647   2.6403   2.7308   3.0857
     3.1466   3.2348   3.4447   3.5412   3.7771   3.8487   4.1394   4.3484
     4.5485   4.9450   5.2657   5.9959   8.1840  10.3147  11.3264  11.4935
    13.2990  13.8287  15.1275  15.9055

          k =-0.1250-0.1443-0.0673 (  4490 PWs)   bands (ev):

   -99.4622 -98.3104 -98.2565 -97.8878 -50.8201 -50.7192 -50.6886 -49.6105
   -49.5703 -49.5400 -49.5303 -49.5220 -49.4957 -49.1737 -49.1444 -49.1056
   -16.3474  -4.4067  -1.0258  -0.6516   0.1531   0.6492   0.9489   1.0402
     1.4172   1.9255   2.2052   2.5240   2.5653   2.6401   2.7304   3.0859
     3.1457   3.2344   3.4447   3.5411   3.7769   3.8495   4.1396   4.3489
     4.5481   4.9452   5.2659   5.9960   8.1840  10.3146  11.3276  11.4924
    13.2989  13.8287  15.1276  15.9051

          k = 0.0000-0.0722-0.0673 (  4520 PWs)   bands (ev):

   -99.4639 -98.3120 -98.2582 -97.8895 -50.8247 -50.6845 -50.6783 -49.6165
   -49.5365 -49.5297 -49.5292 -49.4909 -49.4861 -49.1396 -49.1349 -49.1088
   -16.4481  -4.8024  -1.6124  -0.9977  -0.3729   0.3993   1.1096   1.1813
     1.2933   2.2027   2.3917   2.4399   2.7737   2.8712   2.9239   2.9682
     3.0104   3.2597   3.3763   3.4725   3.4895   3.7572   4.3316   4.3453
     4.7018   4.9006   5.2173   5.3281   7.1069  10.8156  11.4163  11.4888
    12.7397  13.2616  14.5934  15.3016

          k = 0.3750 0.0000-0.0673 (  4450 PWs)   bands (ev):

   -99.4583 -98.3065 -98.2526 -97.8839 -50.8095 -50.7904 -50.7221 -49.6411
   -49.6091 -49.5842 -49.5698 -49.5283 -49.5226 -49.2430 -49.1764 -49.0984
   -16.1018  -3.5103  -0.5535  -0.0566   0.3144   0.8781   1.1501   1.4165
     1.5699   1.8352   1.9943   2.0924   2.4552   2.6406   2.7810   2.9823
     3.1566   3.4685   3.6286   3.7723   4.2259   4.4237   4.7455   5.1431
     5.2765   5.6235   6.0382   7.7403   8.7477  10.1123  10.5667  13.0549
    15.0785  15.5519  15.8787  16.1857

          k =-0.3125 0.3969-0.0673 (  4428 PWs)   bands (ev):

   -99.4561 -98.3043 -98.2505 -97.8818 -50.8228 -50.8036 -50.7463 -49.6720
   -49.6342 -49.5969 -49.5800 -49.5509 -49.5216 -49.2732 -49.2004 -49.0946
   -15.9629  -3.0252  -0.9785  -0.0254   0.2642   1.0602   1.2652   1.3405
     1.6040   1.7455   1.9716   2.2561   2.5041   2.7462   2.9841   3.0948
     3.4864   3.8378   3.9258   4.0986   4.4814   4.8173   5.0917   5.5409
     5.5762   7.3479   7.6023   8.2510   9.4125  10.1789  11.5558  12.2686
    13.0496  14.2143  14.9784  15.5022

          k = 0.5000 0.0722-0.0673 (  4428 PWs)   bands (ev):

   -99.4561 -98.3043 -98.2505 -97.8818 -50.8223 -50.8036 -50.7468 -49.6720
   -49.6342 -49.5969 -49.5800 -49.5509 -49.5216 -49.2732 -49.2004 -49.0946
   -15.9629  -3.0242  -0.9787  -0.0254   0.2646   1.0576   1.2647   1.3408
     1.6039   1.7456   1.9712   2.2557   2.5045   2.7455   2.9844   3.0949
     3.4867   3.8375   3.9258   4.0989   4.4815   4.8175   5.0926   5.5410
     5.5762   7.3484   7.6045   8.2511   9.4124  10.1779  11.5559  12.2680
    13.0496  14.2128  14.9768  15.5001

          k =-0.4375 0.4691-0.0673 (  4432 PWs)   bands (ev):

   -99.4556 -98.3038 -98.2500 -97.8813 -50.8294 -50.8023 -50.7529 -49.6790
   -49.6405 -49.6030 -49.5795 -49.5559 -49.5215 -49.2799 -49.2064 -49.0937
   -15.9297  -2.9018  -1.1178  -0.0150   0.2318   0.9715   1.2701   1.3303
     1.5413   1.8346   1.9579   2.2033   2.5266   2.8839   3.0086   3.1323
     3.5459   3.9528   4.2121   4.2812   4.6874   4.8852   5.1865   5.4683
     5.8761   7.0820   8.5783   9.2030   9.5859  10.2354  11.0872  11.6366
    12.8981  13.1796  14.2798  15.5937

          k = 0.6250 0.1443-0.0673 (  4432 PWs)   bands (ev):

   -99.4556 -98.3038 -98.2500 -97.8813 -50.8296 -50.8023 -50.7528 -49.6790
   -49.6404 -49.6030 -49.5796 -49.5559 -49.5215 -49.2799 -49.2064 -49.0937
   -15.9296  -2.9022  -1.1176  -0.0149   0.2314   0.9725   1.2703   1.3302
     1.5413   1.8345   1.9580   2.2035   2.5266   2.8843   3.0083   3.1324
     3.5457   3.9531   4.2119   4.2811   4.6875   4.8850   5.1863   5.4685
     5.8759   7.0804   8.5783   9.2030   9.5866  10.2353  11.0872  11.6366
    12.8989  13.1785  14.2827  15.5937

          k = 0.4375-0.0361-0.0673 (  4450 PWs)   bands (ev):

   -99.4570 -98.3052 -98.2514 -97.8827 -50.8092 -50.8058 -50.7358 -49.6589
   -49.6226 -49.5879 -49.5796 -49.5411 -49.5220 -49.2605 -49.1897 -49.0962
   -16.0237  -3.2384  -0.7589  -0.0381   0.3078   1.0836   1.2603   1.3370
     1.6260   1.7600   1.9026   2.3016   2.4568   2.6613   2.7858   3.1669
     3.2848   3.5615   3.6575   3.9668   4.3152   4.7172   4.8377   5.3370
     5.5029   6.4107   6.9984   8.1999   8.7110  10.0666  10.9503  13.6208
    14.1865  14.8125  15.6070  16.0103

          k =-0.2500-0.3608-0.0673 (  4450 PWs)   bands (ev):

   -99.4570 -98.3052 -98.2514 -97.8827 -50.8100 -50.8057 -50.7350 -49.6589
   -49.6226 -49.5879 -49.5796 -49.5411 -49.5220 -49.2605 -49.1897 -49.0962
   -16.0237  -3.2393  -0.7593  -0.0382   0.3085   1.0843   1.2621   1.3374
     1.6258   1.7603   1.9026   2.3017   2.4567   2.6613   2.7860   3.1666
     3.2849   3.5616   3.6576   3.9662   4.3151   4.7159   4.8374   5.3372
     5.5031   6.4107   6.9988   8.1978   8.7105  10.0663  10.9522  13.6208
    14.1859  14.8133  15.6105  16.0098

          k = 0.3125 0.0361-0.0673 (  4452 PWs)   bands (ev):

   -99.4596 -98.3078 -98.2539 -97.8852 -50.8130 -50.7693 -50.7085 -49.6209
   -49.6031 -49.5736 -49.5571 -49.5241 -49.5145 -49.2227 -49.1632 -49.1008
   -16.1848  -3.8051  -0.5194  -0.0581   0.1736   0.6714   1.0757   1.3245
     1.6517   1.7641   1.9820   2.1519   2.3836   2.7044   2.8616   2.9991
     3.1761   3.3114   3.5315   3.7275   4.1592   4.2411   4.5305   4.7182
     5.0541   5.1585   5.4186   7.0629   8.9730   9.7774  10.8858  12.3625
    14.3880  14.9023  15.9655  16.8503

          k =-0.1250-0.2887-0.0673 (  4452 PWs)   bands (ev):

   -99.4596 -98.3078 -98.2539 -97.8852 -50.8130 -50.7704 -50.7074 -49.6209
   -49.6031 -49.5736 -49.5571 -49.5241 -49.5145 -49.2227 -49.1632 -49.1008
   -16.1848  -3.8051  -0.5199  -0.0601   0.1744   0.6717   1.0748   1.3252
     1.6538   1.7645   1.9818   2.1521   2.3839   2.7043   2.8616   2.9988
     3.1759   3.3100   3.5312   3.7276   4.1592   4.2423   4.5307   4.7180
     5.0541   5.1586   5.4190   7.0637   8.9726   9.7770  10.8860  12.3623
    14.3877  14.9023  15.9654  16.8503

          k = 0.0000-0.2165-0.0673 (  4480 PWs)   bands (ev):

   -99.4617 -98.3099 -98.2560 -97.8873 -50.8188 -50.7311 -50.6901 -49.6090
   -49.5812 -49.5415 -49.5381 -49.5251 -49.4976 -49.1846 -49.1464 -49.1047
   -16.3170  -4.2917  -0.8853  -0.5392   0.2157   0.5273   1.0327   1.1616
     1.4177   1.8122   2.1810   2.4231   2.6005   2.6216   2.7848   3.0719
     3.1932   3.2780   3.5429   3.6031   3.7441   3.8937   4.1423   4.3053
     4.6800   4.8534   5.3372   6.1790   8.4040  10.1278  11.3279  11.5861
    13.4804  14.0095  15.2749  16.0801

          k = 0.6250 0.0000-0.0673 (  4434 PWs)   bands (ev):

   -99.4552 -98.3034 -98.2495 -97.8808 -50.8070 -50.8011 -50.7875 -49.6573
   -49.6376 -49.6187 -49.5975 -49.5687 -49.5208 -49.2590 -49.2392 -49.0928
   -15.9004  -2.7606  -0.7604  -0.3147   0.1352   1.2767   1.3632   1.7518
     1.8253   1.9809   2.1476   2.2707   2.2982   2.6173   2.9315   3.3902
     3.4337   3.6126   3.7603   4.0178   4.3131   4.8826   5.1336   5.2750
     6.3495   7.0469   8.4533   9.7289  10.7088  10.8194  11.1272  12.4505
    12.7278  13.4226  14.2442  14.9469

          k =-0.4375 0.6134-0.0673 (  4444 PWs)   bands (ev):

   -99.4555 -98.3037 -98.2499 -97.8812 -50.8178 -50.8020 -50.7677 -49.6677
   -49.6307 -49.6163 -49.5839 -49.5651 -49.5211 -49.2691 -49.2205 -49.0934
   -15.9224  -2.8568  -0.8914  -0.0657   0.0936   1.1728   1.3500   1.5952
     1.7227   1.9452   2.0560   2.2386   2.3792   2.7265   2.8523   3.2459
     3.4085   3.7426   3.8451   4.0157   4.3798   4.8470   5.1463   5.4668
     5.9546   7.3430   8.4634   8.8251   9.7121  10.9676  11.4746  12.1362
    13.0202  13.5063  14.5173  14.8157

          k = 0.7500 0.0722-0.0673 (  4444 PWs)   bands (ev):

   -99.4555 -98.3037 -98.2499 -97.8812 -50.8189 -50.8019 -50.7666 -49.6677
   -49.6306 -49.6163 -49.5840 -49.5651 -49.5211 -49.2691 -49.2205 -49.0934
   -15.9224  -2.8580  -0.8920  -0.0642   0.0939   1.1737   1.3507   1.5953
     1.7225   1.9450   2.0560   2.2388   2.3792   2.7265   2.8519   3.2464
     3.4087   3.7426   3.8449   4.0162   4.3794   4.8467   5.1460   5.4672
     5.9554   7.3374   8.4643   8.8263   9.7124  10.9673  11.4756  12.1360
    13.0210  13.5085  14.5207  14.8138

          k = 0.4375 0.1083-0.0673 (  4428 PWs)   bands (ev):

   -99.4569 -98.3051 -98.2513 -97.8826 -50.8193 -50.8058 -50.7284 -49.6691
   -49.6316 -49.5831 -49.5774 -49.5340 -49.5223 -49.2703 -49.1827 -49.0960
   -16.0155  -3.2277  -0.9921  -0.1308   0.4950   0.9628   1.0465   1.2380
     1.4001   1.6172   1.9020   2.3053   2.6090   2.8229   3.0412   3.1866
     3.5530   3.8661   4.0645   4.1913   4.4620   4.7172   4.9326   5.3478
     5.4947   6.3386   6.8855   7.8727   8.9434  10.2859  10.9843  12.8103
    13.5426  14.3882  15.4274  16.2447

          k =-0.1250-0.4330-0.0673 (  4428 PWs)   bands (ev):

   -99.4569 -98.3051 -98.2513 -97.8826 -50.8204 -50.8058 -50.7273 -49.6691
   -49.6315 -49.5832 -49.5774 -49.5340 -49.5223 -49.2702 -49.1827 -49.0960
   -16.0155  -3.2284  -0.9931  -0.1303   0.4951   0.9622   1.0497   1.2371
     1.4004   1.6167   1.9024   2.3051   2.6089   2.8231   3.0413   3.1867
     3.5533   3.8662   4.0646   4.1913   4.4614   4.7166   4.9326   5.3480
     5.4949   6.3389   6.8870   7.8716   8.9424  10.2843  10.9860  12.8118
    13.5421  14.3890  15.4291  16.2459

          k = 0.0000-0.3608-0.0673 (  4442 PWs)   bands (ev):

   -99.4586 -98.3068 -98.2529 -97.8843 -50.8105 -50.7963 -50.7067 -49.6458
   -49.6127 -49.5839 -49.5581 -49.5238 -49.5138 -49.2474 -49.1626 -49.0991
   -16.1240  -3.6102  -0.7988  -0.2251   0.3556   0.7269   1.1223   1.2638
     1.3912   1.4815   1.9275   2.2937   2.6926   2.9445   3.0341   3.3740
     3.4677   3.5812   3.9291   4.0420   4.2918   4.5209   4.6548   4.7660
     5.0611   5.3585   5.4058   7.2901   8.7193  10.0013  11.0323  12.7371
    14.7812  14.9223  15.3227  15.9949

          k = 0.8750 0.0000-0.0673 (  4420 PWs)   bands (ev):

   -99.4558 -98.3040 -98.2502 -97.8815 -50.8408 -50.8029 -50.7356 -49.6891
   -49.6503 -49.5870 -49.5787 -49.5417 -49.5220 -49.2896 -49.1908 -49.0941
   -15.9432  -2.9795  -1.3268  -0.1252   0.4736   0.8381   0.9932   1.1826
     1.2388   1.6044   1.9292   2.3563   2.6873   2.8768   3.0695   3.3696
     3.7954   4.0525   4.4670   4.8117   4.8668   5.0062   5.3657   5.5190
     5.7255   6.8904   8.3940   8.9261   9.5303   9.8623  10.6058  11.6285
    12.1229  13.3881  13.5530  16.1831

          k = 0.0000-0.5052-0.0673 (  4396 PWs)   bands (ev):

   -99.4564 -98.3046 -98.2508 -97.8821 -50.8423 -50.8045 -50.7183 -49.6906
   -49.6520 -49.5804 -49.5697 -49.5253 -49.5229 -49.2910 -49.1741 -49.0952
   -15.9815  -3.1453  -1.3980  -0.2458   0.4718   0.6884   0.9680   1.0889
     1.1331   1.3404   1.8834   2.5444   2.8604   2.9660   3.1008   3.4422
     4.1856   4.2150   4.3505   4.5852   5.1721   5.3388   5.4336   5.5264
     5.8438   6.3655   6.8674   7.5350   9.3444  10.7229  10.7360  11.6160
    11.9468  13.1721  14.6782  15.5481

     the Fermi energy is     7.3080 ev

!    total energy              =   -1158.81890073 Ry
     Harris-Foulkes estimate   =   -1158.81890073 Ry
     estimated scf accuracy    <          4.4E-10 Ry

     The total energy is the sum of the following terms:

     one-electron contribution =   -5971.65480084 Ry
     hartree contribution      =    2990.11609654 Ry
     xc contribution           =    -113.36209570 Ry
     ewald contribution        =    1951.78842359 Ry
     one-center paw contrib.   =     -15.70547414 Ry
     smearing contrib. (-TS)   =      -0.00105018 Ry

     convergence has been achieved in   9 iterations

     Forces acting on atoms (Ry/au):


     negative rho (up, down):  1.396E-04 0.000E+00
     atom    1 type  1   force =     0.00000000    0.00000038   -0.02114704
     atom    2 type  1   force =     0.00000000   -0.00001102    0.02119867
     atom    3 type  1   force =     0.00000000   -0.00001320    0.00001484
     atom    4 type  1   force =     0.00000000    0.00003487    0.00000733
     atom    5 type  2   force =     0.00000000    0.00019998   -0.00005556
     atom    6 type  3   force =     0.00000000   -0.00021102   -0.00001825

     Total force =     0.000299     Total SCF correction =     0.000179
     SCF correction compared to forces is large: reduce conv_thr to get better values

     bfgs converged in  26 scf cycles and  24 bfgs steps
     (criteria: energy <  1.0E-04, force <  1.0E-03)

     End of BFGS Geometry Optimization

     Final energy   =   -1158.8189007285 Ry
Begin final coordinates

ATOMIC_POSITIONS (alat)
Au       0.000000000   0.000000000   0.000000000    0   0   0
Au       0.500000000   0.288675000   0.816497000    0   0   0
Au       0.000000000   0.576986136   1.683589875
Au      -0.000000000  -0.000326635   2.546134036
C        0.500000000   0.289422687   3.074165890
O        0.500001000   0.289756650   3.479724951
End final coordinates



     Writing output data file CO_Au_hollow.save

     init_run     :     37.56s CPU     46.48s WALL (       1 calls)
     electrons    :  30246.63s CPU  40627.62s WALL (      26 calls)
     update_pot   :     45.16s CPU     78.91s WALL (      25 calls)
     forces       :    541.49s CPU    638.56s WALL (      26 calls)

     Called by init_run:
     wfcinit      :     34.27s CPU     41.80s WALL (       1 calls)
     potinit      :      0.95s CPU      1.28s WALL (       1 calls)

     Called by electrons:
     c_bands      :  26330.37s CPU  34700.55s WALL (     260 calls)
     sum_band     :   3695.12s CPU   5533.18s WALL (     260 calls)
     v_of_rho     :     64.06s CPU    109.95s WALL (     273 calls)
     newd         :    127.78s CPU    221.16s WALL (     273 calls)
     mix_rho      :      6.87s CPU     11.41s WALL (     260 calls)

     Called by c_bands:
     init_us_2    :    324.58s CPU    493.22s WALL (   29744 calls)
     cegterg      :  24781.81s CPU  32392.96s WALL (   13520 calls)

     Called by *egterg:
     h_psi        :  15039.56s CPU  21519.68s WALL (   47571 calls)
     s_psi        :   2610.95s CPU   2434.51s WALL (   47571 calls)
     g_psi        :     43.06s CPU     40.75s WALL (   33999 calls)
     cdiaghg      :    870.11s CPU   1751.05s WALL (   45543 calls)

     Called by h_psi:
     add_vuspsi   :   2601.58s CPU   2537.15s WALL (   47571 calls)

     General routines
     calbec       :   4403.30s CPU   5921.27s WALL (   63743 calls)
     fft          :     26.57s CPU     44.96s WALL (    4627 calls)
     ffts         :      1.55s CPU      2.26s WALL (     533 calls)
     fftw         :   9248.43s CPU  14681.46s WALL ( 4142448 calls)
     interpolate  :      6.57s CPU     10.90s WALL (     533 calls)
     davcio       :      0.05s CPU      0.78s WALL (      52 calls)

     Parallel routines
     fft_scatter  :   1041.57s CPU   1573.34s WALL ( 4147608 calls)

     PAW routines
     PAW_pot      :     43.07s CPU     70.57s WALL (     298 calls)
     PAW_symme    :      0.01s CPU      0.05s WALL (     558 calls)

     PWSCF        :     8h36m CPU       11h33m WALL


   This run was terminated on:  11:32:52  19Jun2018            

=------------------------------------------------------------------------------=
   JOB DONE.
=------------------------------------------------------------------------------=
