
     Program PWSCF v.5.1 starts on 18Jun2018 at 20:31:48 

     This program is part of the open-source Quantum ESPRESSO suite
     for quantum simulation of materials; please cite
         "P. Giannozzi et al., J. Phys.:Condens. Matter 21 395502 (2009);
          URL http://www.quantum-espresso.org", 
     in publications or presentations arising from this work. More details at
     http://www.quantum-espresso.org/quote

     Parallel version (MPI), running on     1 processors
     Waiting for input...
     Reading input from standard input
Warning: card &CELL ignored
Warning: card / ignored

     Current dimensions of program PWSCF are:
     Max number of different atomic species (ntypx) = 10
     Max number of k-points (npk) =  40000
     Max angular momentum in pseudopotentials (lmaxx) =  3
               file C.pbe-n-kjpaw_psl.1.0.0.UPF: wavefunction(s)  2S 2P renormalized
               file O.pbe-n-kjpaw_psl.0.1.U: wavefunction(s)  2P renormalized

     Subspace diagonalization in iterative solution of the eigenvalue problem:
     a serial algorithm will be used


     G-vector sticks info
     --------------------
     sticks:   dense  smooth     PW     G-vecs:    dense   smooth      PW
     Sum         649     313    109               114417    40121    7859



     bravais-lattice index     =            4
     lattice parameter (alat)  =       5.4490  a.u.
     unit-cell volume          =    1182.8411 (a.u.)^3
     number of atoms/cell      =            8
     number of atomic types    =            3
     number of electrons       =        96.00
     number of Kohn-Sham states=           58
     kinetic-energy cutoff     =      40.0000  Ry
     charge density cutoff     =     320.0000  Ry
     convergence threshold     =      1.0E-06
     mixing beta               =       0.7000
     number of iterations used =            8  plain     mixing
     Exchange-correlation      =  SLA  PW   PBX  PBC ( 1  4  3  4 0)
     nstep                     =           50


     celldm(1)=   5.449000  celldm(2)=   0.000000  celldm(3)=   8.442000
     celldm(4)=   0.000000  celldm(5)=   0.000000  celldm(6)=   0.000000

     crystal axes: (cart. coord. in units of alat)
               a(1) = (   1.000000   0.000000   0.000000 )  
               a(2) = (  -0.500000   0.866025   0.000000 )  
               a(3) = (   0.000000   0.000000   8.442000 )  

     reciprocal axes: (cart. coord. in units 2 pi/alat)
               b(1) = (  1.000000  0.577350 -0.000000 )  
               b(2) = (  0.000000  1.154701  0.000000 )  
               b(3) = (  0.000000 -0.000000  0.118455 )  


     PseudoPot. # 1 for Au read from file:
     /home/oropebuen/Documents/Job/Absortion/SSSP_efficiency_pseudos/Au_ONCV_PBE-1.0.upf
     MD5 check sum: 1009843a674e36925f098327e430af60
     Pseudo is Norm-conserving, Zval = 19.0
     Generated using ONCVPSP code by D. R. Hamann
     Using radial grid of  602 points,  8 beta functions with: 
                l(1) =   0
                l(2) =   0
                l(3) =   1
                l(4) =   1
                l(5) =   2
                l(6) =   2
                l(7) =   3
                l(8) =   3

     PseudoPot. # 2 for  C read from file:
     /home/oropebuen/Documents/Job/Absortion/SSSP_efficiency_pseudos/C.pbe-n-kjpaw_psl.1.0.0.UPF
     MD5 check sum: 8e281b34a927efac7e739263a90d7aed
     Pseudo is Projector augmented-wave + core cor, Zval =  4.0
     Generated using "atomic" code by A. Dal Corso  v.5.1
     Shape of augmentation charge: PSQ
     Using radial grid of 1073 points,  4 beta functions with: 
                l(1) =   0
                l(2) =   0
                l(3) =   1
                l(4) =   1
     Q(r) pseudized with 0 coefficients 


     PseudoPot. # 3 for  O read from file:
     /home/oropebuen/Documents/Job/Absortion/SSSP_efficiency_pseudos/O.pbe-n-kjpaw_psl.0.1.U
     MD5 check sum: 3f94a2996a3169367d6eb21d9b593f20
     Pseudo is Projector augmented-wave + core cor, Zval =  6.0
     Generated using "atomic" code by A. Dal Corso  v.5.0.99 svn rev. 10869
     Shape of augmentation charge: BESSEL
     Using radial grid of 1095 points,  4 beta functions with: 
                l(1) =   0
                l(2) =   0
                l(3) =   1
                l(4) =   1
     Q(r) pseudized with 0 coefficients 


     atomic species   valence    mass     pseudopotential
        Au            19.00   196.96600     Au( 1.00)
        C              4.00    12.01070      C( 1.00)
        O              6.00    15.99940      O( 1.00)

      2 Sym. Ops. (no inversion) found



   Cartesian axes

     site n.     atom                  positions (alat units)
         1           O   tau(   1) = (   0.5000010   0.2893304  -1.0073012  )
         2           C   tau(   2) = (   0.5000000   0.2896925  -0.6018444  )
         3           Au  tau(   3) = (  -0.0000000  -0.0005614  -0.0757270  )
         4           Au  tau(   4) = (   0.5000000   0.2886019   0.7828216  )
         5           Au  tau(   5) = (   0.0000000   0.5773333   1.6617213  )
         6           Au  tau(   6) = (   0.0000000   0.0000926   2.5271022  )
         7           C   tau(   7) = (   0.5000000   0.2892360   3.0527721  )
         8           O   tau(   8) = (   0.5000010   0.2889997   3.4584154  )

     number of k points=    52  gaussian smearing, width (Ry)=  0.0100
                       cart. coord. in units 2pi/alat
        k(    1) = (   0.0625000   0.1082532  -0.0592277), wk =   0.0416667
        k(    2) = (   0.0625000   0.2525907  -0.0592277), wk =   0.0416667
        k(    3) = (   0.0625000   0.3969283  -0.0592277), wk =   0.0416667
        k(    4) = (   0.0625000   0.5412659  -0.0592277), wk =   0.0416667
        k(    5) = (   0.0625000  -0.4690971  -0.0592277), wk =   0.0416667
        k(    6) = (   0.0625000  -0.3247595  -0.0592277), wk =   0.0416667
        k(    7) = (   0.0625000  -0.1804220  -0.0592277), wk =   0.0416667
        k(    8) = (   0.0625000  -0.0360844  -0.0592277), wk =   0.0416667
        k(    9) = (   0.1875000   0.3247595  -0.0592277), wk =   0.0416667
        k(   10) = (   0.1875000   0.4690971  -0.0592277), wk =   0.0416667
        k(   11) = (   0.1875000   0.6134347  -0.0592277), wk =   0.0416667
        k(   12) = (   0.1875000  -0.3969283  -0.0592277), wk =   0.0416667
        k(   13) = (   0.1875000  -0.2525907  -0.0592277), wk =   0.0416667
        k(   14) = (   0.1875000  -0.1082532  -0.0592277), wk =   0.0416667
        k(   15) = (   0.3125000   0.5412659  -0.0592277), wk =   0.0416667
        k(   16) = (   0.3125000   0.6856034  -0.0592277), wk =   0.0416667
        k(   17) = (   0.3125000  -0.3247595  -0.0592277), wk =   0.0416667
        k(   18) = (   0.3125000  -0.1804220  -0.0592277), wk =   0.0416667
        k(   19) = (   0.4375000   0.7577722  -0.0592277), wk =   0.0416667
        k(   20) = (   0.4375000  -0.2525907  -0.0592277), wk =   0.0416667
        k(   21) = (   0.1250000   0.0000000  -0.0592277), wk =   0.0208333
        k(   22) = (  -0.1875000   0.1804220  -0.0592277), wk =   0.0416667
        k(   23) = (   0.2500000   0.0721688  -0.0592277), wk =   0.0416667
        k(   24) = (  -0.3125000   0.2525907  -0.0592277), wk =   0.0416667
        k(   25) = (   0.3750000   0.1443376  -0.0592277), wk =   0.0416667
        k(   26) = (  -0.4375000   0.3247595  -0.0592277), wk =   0.0416667
        k(   27) = (   0.5000000   0.2165064  -0.0592277), wk =   0.0416667
        k(   28) = (   0.4375000  -0.1804220  -0.0592277), wk =   0.0416667
        k(   29) = (  -0.3750000  -0.2886751  -0.0592277), wk =   0.0416667
        k(   30) = (   0.3125000  -0.1082532  -0.0592277), wk =   0.0416667
        k(   31) = (  -0.2500000  -0.2165064  -0.0592277), wk =   0.0416667
        k(   32) = (   0.1875000  -0.0360844  -0.0592277), wk =   0.0416667
        k(   33) = (  -0.1250000  -0.1443376  -0.0592277), wk =   0.0416667
        k(   34) = (   0.0000000  -0.0721688  -0.0592277), wk =   0.0208333
        k(   35) = (   0.3750000   0.0000000  -0.0592277), wk =   0.0208333
        k(   36) = (  -0.3125000   0.3969283  -0.0592277), wk =   0.0416667
        k(   37) = (   0.5000000   0.0721688  -0.0592277), wk =   0.0416667
        k(   38) = (  -0.4375000   0.4690971  -0.0592277), wk =   0.0416667
        k(   39) = (   0.6250000   0.1443376  -0.0592277), wk =   0.0416667
        k(   40) = (   0.4375000  -0.0360844  -0.0592277), wk =   0.0416667
        k(   41) = (  -0.2500000  -0.3608439  -0.0592277), wk =   0.0416667
        k(   42) = (   0.3125000   0.0360844  -0.0592277), wk =   0.0416667
        k(   43) = (  -0.1250000  -0.2886751  -0.0592277), wk =   0.0416667
        k(   44) = (   0.0000000  -0.2165064  -0.0592277), wk =   0.0208333
        k(   45) = (   0.6250000   0.0000000  -0.0592277), wk =   0.0208333
        k(   46) = (  -0.4375000   0.6134347  -0.0592277), wk =   0.0416667
        k(   47) = (   0.7500000   0.0721688  -0.0592277), wk =   0.0416667
        k(   48) = (   0.4375000   0.1082532  -0.0592277), wk =   0.0416667
        k(   49) = (  -0.1250000  -0.4330127  -0.0592277), wk =   0.0416667
        k(   50) = (   0.0000000  -0.3608439  -0.0592277), wk =   0.0208333
        k(   51) = (   0.8750000   0.0000000  -0.0592277), wk =   0.0208333
        k(   52) = (   0.0000000  -0.5051815  -0.0592277), wk =   0.0208333

     Dense  grid:   114417 G-vectors     FFT dimensions: (  32,  32, 270)

     Smooth grid:    40121 G-vectors     FFT dimensions: (  24,  24, 192)

     Largest allocated arrays     est. size (Mb)     dimensions
        Kohn-Sham Wavefunctions         4.55 Mb     (    5138,   58)
        NL pseudopotentials            12.54 Mb     (    5138,  160)
        Each V/rho on FFT grid          4.22 Mb     (  276480)
        Each G-vector array             0.87 Mb     (  114417)
        G-vector shells                 0.04 Mb     (    5581)
     Largest temporary arrays     est. size (Mb)     dimensions
        Auxiliary wavefunctions        18.19 Mb     (    5138,  232)
        Each subspace H/S matrix        0.82 Mb     (     232,  232)
        Each <psi_i|beta_j> matrix      0.14 Mb     (     160,   58)
        Arrays for rho mixing          33.75 Mb     (  276480,    8)

     Check: negative/imaginary core charge=   -0.000004    0.000000

     Initial potential from superposition of free atoms
     Check: negative starting charge=   -0.000199

     starting charge   95.91008, renormalised to   96.00000

     negative rho (up, down):  1.994E-04 0.000E+00
     Starting wfc are   16 randomized atomic wfcs +   42 random wfc
     Checking if some PAW data can be deallocated... 

     total cpu time spent up to now is       21.2 secs

     per-process dynamical memory:   330.5 Mb

     Self-consistent Calculation

     iteration #  1     ecut=    40.00 Ry     beta=0.70
     Davidson diagonalization with overlap
     ethr =  1.00E-02,  avg # of iterations =  7.2

     Threshold (ethr) on eigenvalues was too large:
     Diagonalizing with lowered threshold

     Davidson diagonalization with overlap
     ethr =  9.57E-04,  avg # of iterations =  1.0

     negative rho (up, down):  2.923E-04 0.000E+00

     total cpu time spent up to now is      243.6 secs

     total energy              =   -1218.17658191 Ry
     Harris-Foulkes estimate   =   -1218.94195702 Ry
     estimated scf accuracy    <       0.91651487 Ry

     iteration #  2     ecut=    40.00 Ry     beta=0.70
     Davidson diagonalization with overlap
     ethr =  9.55E-04,  avg # of iterations =  4.5

     negative rho (up, down):  9.766E-04 0.000E+00

     total cpu time spent up to now is      326.0 secs

     total energy              =   -1212.92460456 Ry
     Harris-Foulkes estimate   =   -1222.09072644 Ry
     estimated scf accuracy    <      89.13667645 Ry

     iteration #  3     ecut=    40.00 Ry     beta=0.70
     Davidson diagonalization with overlap
     ethr =  9.55E-04,  avg # of iterations =  6.9

     negative rho (up, down):  4.357E-04 0.000E+00

     total cpu time spent up to now is      430.3 secs

     total energy              =   -1216.73922826 Ry
     Harris-Foulkes estimate   =   -1219.89432561 Ry
     estimated scf accuracy    <      59.92450593 Ry

     iteration #  4     ecut=    40.00 Ry     beta=0.70
     Davidson diagonalization with overlap
     ethr =  9.55E-04,  avg # of iterations =  4.5

     negative rho (up, down):  3.435E-04 0.000E+00

     total cpu time spent up to now is      498.5 secs

     total energy              =   -1218.11334842 Ry
     Harris-Foulkes estimate   =   -1219.27984672 Ry
     estimated scf accuracy    <      23.65634794 Ry

     iteration #  5     ecut=    40.00 Ry     beta=0.70
     Davidson diagonalization with overlap
     ethr =  9.55E-04,  avg # of iterations =  4.4

     negative rho (up, down):  2.796E-04 0.000E+00

     total cpu time spent up to now is      559.2 secs

     total energy              =   -1218.75225566 Ry
     Harris-Foulkes estimate   =   -1218.84801544 Ry
     estimated scf accuracy    <       0.93789757 Ry

     iteration #  6     ecut=    40.00 Ry     beta=0.70
     Davidson diagonalization with overlap
     ethr =  9.55E-04,  avg # of iterations =  1.9

     negative rho (up, down):  2.818E-04 0.000E+00

     total cpu time spent up to now is      611.9 secs

     total energy              =   -1218.76672514 Ry
     Harris-Foulkes estimate   =   -1218.81160953 Ry
     estimated scf accuracy    <       0.30905121 Ry

     iteration #  7     ecut=    40.00 Ry     beta=0.70
     Davidson diagonalization with overlap
     ethr =  3.22E-04,  avg # of iterations =  2.9

     negative rho (up, down):  2.823E-04 0.000E+00

     total cpu time spent up to now is      668.5 secs

     total energy              =   -1218.78094191 Ry
     Harris-Foulkes estimate   =   -1218.79304358 Ry
     estimated scf accuracy    <       0.07399042 Ry

     iteration #  8     ecut=    40.00 Ry     beta=0.70
     Davidson diagonalization with overlap
     ethr =  7.71E-05,  avg # of iterations =  3.3

     negative rho (up, down):  2.887E-04 0.000E+00

     total cpu time spent up to now is      723.2 secs

     total energy              =   -1218.78139010 Ry
     Harris-Foulkes estimate   =   -1218.78763973 Ry
     estimated scf accuracy    <       0.03028184 Ry

     iteration #  9     ecut=    40.00 Ry     beta=0.70
     Davidson diagonalization with overlap
     ethr =  3.15E-05,  avg # of iterations =  2.8

     negative rho (up, down):  2.933E-04 0.000E+00

     total cpu time spent up to now is      775.6 secs

     total energy              =   -1218.78152693 Ry
     Harris-Foulkes estimate   =   -1218.78396101 Ry
     estimated scf accuracy    <       0.01275889 Ry

     iteration # 10     ecut=    40.00 Ry     beta=0.70
     Davidson diagonalization with overlap
     ethr =  1.33E-05,  avg # of iterations =  2.5

     negative rho (up, down):  2.884E-04 0.000E+00

     total cpu time spent up to now is      829.2 secs

     total energy              =   -1218.78234708 Ry
     Harris-Foulkes estimate   =   -1218.78270275 Ry
     estimated scf accuracy    <       0.00164607 Ry

     iteration # 11     ecut=    40.00 Ry     beta=0.70
     Davidson diagonalization with overlap
     ethr =  1.71E-06,  avg # of iterations =  3.0

     negative rho (up, down):  2.887E-04 0.000E+00

     total cpu time spent up to now is      890.8 secs

     total energy              =   -1218.78244492 Ry
     Harris-Foulkes estimate   =   -1218.78254520 Ry
     estimated scf accuracy    <       0.00055911 Ry

     iteration # 12     ecut=    40.00 Ry     beta=0.70
     Davidson diagonalization with overlap
     ethr =  5.82E-07,  avg # of iterations =  1.9

     negative rho (up, down):  2.883E-04 0.000E+00

     total cpu time spent up to now is      944.6 secs

     total energy              =   -1218.78247153 Ry
     Harris-Foulkes estimate   =   -1218.78248362 Ry
     estimated scf accuracy    <       0.00005527 Ry

     iteration # 13     ecut=    40.00 Ry     beta=0.70
     Davidson diagonalization with overlap
     ethr =  5.76E-08,  avg # of iterations =  2.0

     negative rho (up, down):  2.882E-04 0.000E+00

     total cpu time spent up to now is     1000.0 secs

     total energy              =   -1218.78247733 Ry
     Harris-Foulkes estimate   =   -1218.78248240 Ry
     estimated scf accuracy    <       0.00003897 Ry

     iteration # 14     ecut=    40.00 Ry     beta=0.70
     Davidson diagonalization with overlap
     ethr =  4.06E-08,  avg # of iterations =  1.1

     negative rho (up, down):  2.880E-04 0.000E+00

     total cpu time spent up to now is     1049.9 secs

     total energy              =   -1218.78247963 Ry
     Harris-Foulkes estimate   =   -1218.78248014 Ry
     estimated scf accuracy    <       0.00000241 Ry

     iteration # 15     ecut=    40.00 Ry     beta=0.70
     Davidson diagonalization with overlap
     ethr =  2.52E-09,  avg # of iterations =  2.0

     negative rho (up, down):  2.880E-04 0.000E+00

     total cpu time spent up to now is     1100.2 secs

     total energy              =   -1218.78247971 Ry
     Harris-Foulkes estimate   =   -1218.78248009 Ry
     estimated scf accuracy    <       0.00000676 Ry

     iteration # 16     ecut=    40.00 Ry     beta=0.70
     Davidson diagonalization with overlap
     ethr =  2.52E-09,  avg # of iterations =  1.0

     negative rho (up, down):  2.880E-04 0.000E+00

     total cpu time spent up to now is     1149.2 secs

     total energy              =   -1218.78247977 Ry
     Harris-Foulkes estimate   =   -1218.78248009 Ry
     estimated scf accuracy    <       0.00000283 Ry

     iteration # 17     ecut=    40.00 Ry     beta=0.70
     Davidson diagonalization with overlap
     ethr =  2.52E-09,  avg # of iterations =  1.0

     negative rho (up, down):  2.881E-04 0.000E+00

     total cpu time spent up to now is     1197.8 secs

     End of self-consistent calculation

          k = 0.0625 0.1083-0.0592 (  5130 PWs)   bands (ev):

   -99.9748 -99.9523 -98.8705 -98.8454 -51.3397 -51.3237 -51.2068 -51.1926
   -51.1835 -51.1685 -50.1742 -50.1125 -50.1024 -50.0920 -50.0778 -50.0646
   -16.8977 -16.8701  -5.1755  -5.1656  -1.8175  -1.4103  -1.1869  -0.4919
     0.4456   0.4684   0.5944   0.6290   0.8593   0.8771   1.4580   1.5855
     1.7839   1.8837   1.9600   2.0024   2.2737   2.3692   2.5405   2.5678
     2.6397   2.9200   3.0467   3.2275   3.2552   3.8590   3.9658   4.3595
     5.3815   9.2264  10.4658  10.6452  10.9595  10.9657  12.7644  12.9347
    13.3583  14.3583

          k = 0.0625 0.2526-0.0592 (  5074 PWs)   bands (ev):

   -99.9723 -99.9498 -98.8680 -98.8429 -51.3329 -51.3169 -51.2593 -51.2363
   -51.2072 -51.1829 -50.1676 -50.1566 -50.1282 -50.1069 -50.1050 -50.0788
   -16.7448 -16.7171  -4.5883  -4.5847  -1.2081  -1.0647  -0.6654  -0.4015
    -0.2287   0.2033   0.5151   0.5708   0.8446   0.8984   1.1526   1.2805
     1.5420   1.7902   2.0279   2.1025   2.2800   2.3529   2.5332   2.6899
     2.7149   3.1186   3.3140   3.5001   3.6215   3.8772   4.2388   4.8818
     6.9007   8.9176   9.3313  10.0855  10.7069  10.7130  13.4992  13.8584
    14.2303  15.3455

          k = 0.0625 0.3969-0.0592 (  5044 PWs)   bands (ev):

   -99.9693 -99.9468 -98.8650 -98.8400 -51.3251 -51.3204 -51.3089 -51.2976
   -51.2245 -51.2002 -50.2185 -50.1936 -50.1459 -50.1241 -50.1059 -50.0954
   -16.5568 -16.5289  -3.9421  -3.9353  -1.4365  -1.4192  -0.6763  -0.6709
    -0.0117   0.1368   0.4204   0.6287   0.6576   0.7416   0.9271   1.2607
     1.6996   1.8806   2.0802   2.4230   2.4927   2.7412   3.1250   3.2874
     3.3567   3.4662   3.7298   4.0383   4.2306   4.4777   4.7634   5.8883
     7.5353   7.9772   8.9796  10.2855  10.3309  10.6088  13.2705  13.8393
    15.0519  15.4745

          k = 0.0625 0.5413-0.0592 (  5006 PWs)   bands (ev):

   -99.9676 -99.9451 -98.8634 -98.8384 -51.3553 -51.3324 -51.3203 -51.3041
   -51.2344 -51.2100 -50.2521 -50.2260 -50.1384 -50.1340 -50.1069 -50.1048
   -16.4462 -16.4181  -3.5812  -3.5642  -1.9390  -1.9179  -0.6814  -0.6781
     0.0005   0.0167   0.2772   0.4823   0.5138   0.5676   0.7978   1.4727
     1.9840   2.0528   2.3883   2.4952   2.7864   2.9732   3.2869   3.8200
     3.9459   4.0876   4.3233   4.7335   4.8546   4.9766   6.2701   6.3917
     6.9876   7.9749   9.6033   9.9437  10.0373  10.5235  11.4532  12.3006
    12.6159  13.7897

          k = 0.0625-0.4691-0.0592 (  5020 PWs)   bands (ev):

   -99.9682 -99.9457 -98.8640 -98.8389 -51.3432 -51.3218 -51.3203 -51.3057
   -51.2309 -51.2065 -50.2403 -50.2145 -50.1413 -50.1305 -50.1064 -50.1015
   -16.4854 -16.4574  -3.7110  -3.6989  -1.7494  -1.7313  -0.6783  -0.6750
     0.0197   0.0592   0.3328   0.5354   0.5743   0.6451   0.8365   1.3953
     1.9024   1.9546   2.3821   2.4449   2.5866   2.8528   3.2532   3.6176
     3.7184   3.9225   4.1113   4.4025   4.4681   4.7857   5.6174   6.3330
     7.0316   7.7748   9.5914  10.1290  10.1583  11.2633  11.3844  12.3902
    14.0253  15.4322

          k = 0.0625-0.3248-0.0592 (  5064 PWs)   bands (ev):

   -99.9707 -99.9483 -98.8665 -98.8414 -51.3287 -51.3127 -51.2913 -51.2683
   -51.2162 -51.1919 -50.1901 -50.1700 -50.1473 -50.1157 -50.1056 -50.0875
   -16.6482 -16.6204  -4.2462  -4.2426  -1.1496  -1.1001  -0.6517  -0.6388
    -0.2013   0.2037   0.5182   0.6385   0.7456   0.8414   1.0709   1.1846
     1.5804   1.6766   1.9601   2.3368   2.4531   2.5749   2.8151   2.8767
     2.9696   3.1377   3.4175   3.8605   3.9674   4.1591   4.2786   5.3521
     7.5335   8.4744   8.8419  10.1632  10.5263  10.5412  13.9220  14.5799
    14.9078  15.4209

          k = 0.0625-0.1804-0.0592 (  5100 PWs)   bands (ev):

   -99.9737 -99.9512 -98.8694 -98.8443 -51.3367 -51.3207 -51.2297 -51.2066
   -51.1989 -51.1746 -50.1704 -50.1297 -50.1079 -50.1000 -50.0967 -50.0707
   -16.8321 -16.8045  -4.9174  -4.9107  -1.5146  -1.2385  -0.9446  -0.2518
     0.1245   0.2183   0.5040   0.5504   0.9109   0.9225   1.2868   1.4356
     1.6407   1.8935   2.0293   2.1018   2.1663   2.2647   2.3588   2.6596
     2.6996   3.0227   3.1632   3.2473   3.3730   3.8509   4.1586   4.5064
     6.1299   9.1500   9.9311  10.3024  10.8550  10.8611  13.0973  13.3074
    13.7099  14.7757

          k = 0.0625-0.0361-0.0592 (  5138 PWs)   bands (ev):

   -99.9754 -99.9529 -98.8711 -98.8460 -51.3413 -51.3253 -51.1941 -51.1894
   -51.1702 -51.1659 -50.1763 -50.1102 -50.0929 -50.0886 -50.0660 -50.0613
   -16.9327 -16.9052  -5.3168  -5.3049  -1.9945  -1.5070  -1.3147  -0.6725
     0.6080   0.6296   0.6869   0.7156   0.7823   0.8045   1.6257   1.6820
     1.9004   1.9166   1.9326   1.9473   2.3349   2.4095   2.4264   2.4788
     2.8558   2.9222   3.0119   3.1129   3.3557   3.8211   3.8938   4.3332
     4.8191   9.2497  10.8129  10.8862  11.0113  11.0161  12.5509  12.7461
    13.1767  14.1303

          k = 0.1875 0.3248-0.0592 (  5074 PWs)   bands (ev):

   -99.9697 -99.9473 -98.8655 -98.8405 -51.3261 -51.3100 -51.3016 -51.2784
   -51.2317 -51.2077 -50.1999 -50.1772 -50.1477 -50.1296 -50.1065 -50.1013
   -16.5866 -16.5587  -4.0184  -4.0149  -1.0402  -1.0309  -0.5421  -0.5299
    -0.2543  -0.1202   0.5548   0.7046   0.7547   0.9518   1.1008   1.1653
     1.4328   1.6106   1.7682   2.1393   2.2826   2.4399   2.6728   3.0777
     3.1390   3.3605   3.4561   3.9417   4.2866   4.4548   4.9059   5.9727
     8.0468   8.2670   8.6496   9.9738  10.0545  10.4966  14.3828  15.1183
    15.3299  15.4313

          k = 0.1875 0.4691-0.0592 (  5032 PWs)   bands (ev):

   -99.9676 -99.9451 -98.8634 -98.8384 -51.3335 -51.3202 -51.3107 -51.3040
   -51.2565 -51.2322 -50.2307 -50.2054 -50.1560 -50.1403 -50.1244 -50.1060
   -16.4477 -16.4196  -3.5364  -3.5264  -1.4800  -1.4669  -0.4914  -0.4851
    -0.2662  -0.2269   0.4974   0.5799   0.8300   0.8846   1.1206   1.2214
     1.5610   1.8916   2.0083   2.0965   2.2661   2.6472   2.9798   3.3154
     3.4295   3.7110   3.9980   4.4726   4.9494   5.0102   6.7511   7.0346
     7.2395   8.0501   9.0416   9.3094  10.2958  11.5047  12.0212  12.8327
    14.1465  14.9947

          k = 0.1875 0.6134-0.0592 (  5032 PWs)   bands (ev):

   -99.9671 -99.9446 -98.8629 -98.8379 -51.3405 -51.3189 -51.3176 -51.3027
   -51.2627 -51.2383 -50.2377 -50.2118 -50.1620 -50.1410 -50.1271 -50.1067
   -16.4144 -16.3863  -3.4157  -3.4026  -1.6230  -1.6060  -0.4801  -0.4733
    -0.2863  -0.2593   0.4232   0.4968   0.8287   0.8764   1.0596   1.3391
     1.5692   1.9434   2.0549   2.2482   2.3737   2.6909   2.9752   3.5795
     3.6595   3.8002   4.1230   4.4336   5.2956   5.3831   6.5751   6.5948
     8.0452   8.7253   8.9004   9.3410   9.8543  11.1062  11.8623  12.9413
    13.1799  14.0848

          k = 0.1875-0.3969-0.0592 (  5052 PWs)   bands (ev):

   -99.9685 -99.9461 -98.8643 -98.8393 -51.3231 -51.3197 -51.3068 -51.2968
   -51.2454 -51.2212 -50.2176 -50.1932 -50.1476 -50.1399 -50.1159 -50.1050
   -16.5084 -16.4804  -3.7482  -3.7419  -1.2528  -1.2454  -0.5090  -0.5011
    -0.2346  -0.1909   0.5583   0.7009   0.7876   0.8967   1.1034   1.2416
     1.4210   1.6995   1.9407   2.1050   2.1710   2.5148   2.9667   3.0434
     3.1725   3.6270   3.8234   4.1873   4.5699   4.7288   5.7963   6.8070
     7.7521   7.8228   9.0083   9.5810   9.8750  11.0314  13.4767  14.1232
    15.1547  15.3849

          k = 0.1875-0.2526-0.0592 (  5062 PWs)   bands (ev):

   -99.9710 -99.9486 -98.8668 -98.8417 -51.3296 -51.3136 -51.2804 -51.2570
   -51.2182 -51.1943 -50.1800 -50.1646 -50.1441 -50.1169 -50.1054 -50.0893
   -16.6695 -16.6417  -4.3126  -4.3101  -1.0251  -0.9619  -0.5537  -0.5263
    -0.3001   0.0527   0.5520   0.6113   0.7080   0.9442   1.1142   1.2267
     1.4720   1.6131   1.9033   2.1245   2.3498   2.4969   2.5906   2.8078
     2.8821   3.1818   3.3087   3.8265   4.0457   4.1671   4.2026   5.3331
     7.5226   8.6450   8.9362  10.1517  10.4106  10.4239  13.9094  14.4034
    14.7500  15.8912

          k = 0.1875-0.1083-0.0592 (  5092 PWs)   bands (ev):

   -99.9732 -99.9507 -98.8689 -98.8438 -51.3354 -51.3194 -51.2407 -51.2167
   -51.2012 -51.1779 -50.1689 -50.1403 -50.1124 -50.1046 -50.1004 -50.0727
   -16.8017 -16.7740  -4.8018  -4.7964  -1.3995  -1.1775  -0.8444  -0.2749
    -0.0487   0.1668   0.5728   0.6071   0.9159   0.9247   1.1602   1.3321
     1.6366   1.9197   2.0896   2.1107   2.1185   2.1983   2.4697   2.6851
     2.7457   3.1016   3.1092   3.2760   3.5205   3.7434   4.3285   4.5529
     6.4030   9.0813   9.6886  10.1699  10.8512  10.8557  13.2242  13.4917
    13.8828  14.9679

          k = 0.3125 0.5413-0.0592 (  5044 PWs)   bands (ev):

   -99.9666 -99.9442 -98.8624 -98.8374 -51.3183 -51.3175 -51.3017 -51.2971
   -51.2948 -51.2730 -50.2160 -50.1974 -50.1888 -50.1689 -50.1296 -50.1073
   -16.3852 -16.3571  -3.2741  -3.2623  -1.2664  -1.2532  -0.8155  -0.7973
    -0.3336  -0.3213   0.6772   0.8066   0.8630   0.9751   1.2589   1.4983
     1.6739   1.7561   1.7893   2.0497   2.0814   2.8239   2.9159   3.2006
     3.2890   3.5983   4.1289   4.3002   5.7998   5.8691   6.5381   6.5523
     7.9620   8.1627   9.3101  10.2105  10.5811  10.8074  12.3536  12.4934
    13.5948  14.3496

          k = 0.3125 0.6856-0.0592 (  5050 PWs)   bands (ev):

   -99.9670 -99.9445 -98.8627 -98.8378 -51.3289 -51.3185 -51.3056 -51.3022
   -51.2775 -51.2538 -50.2264 -50.2013 -50.1759 -50.1513 -50.1304 -50.1067
   -16.4072 -16.3791  -3.3700  -3.3587  -1.3924  -1.3795  -0.5754  -0.5518
    -0.3802  -0.3673   0.5835   0.7209   0.8498   1.0013   1.2562   1.3068
     1.6037   1.7447   1.8652   2.1173   2.2040   2.6421   2.9057   3.2828
     3.3619   3.6248   4.0682   4.4723   5.4088   5.4699   6.8293   6.8496
     7.9025   8.2756   8.6558   9.5706  10.5853  11.3677  11.9872  13.1822
    13.3861  14.1857

          k = 0.3125-0.3248-0.0592 (  5038 PWs)   bands (ev):

   -99.9684 -99.9460 -98.8642 -98.8392 -51.3303 -51.3223 -51.3076 -51.3051
   -51.2383 -51.2148 -50.2278 -50.2025 -50.1434 -50.1367 -50.1092 -50.1050
   -16.5003 -16.4723  -3.7384  -3.7299  -1.4942  -1.4819  -0.5983  -0.5925
    -0.0409   0.0055   0.4667   0.5389   0.6416   0.8147   0.9452   1.2561
     1.6614   1.9396   2.0339   2.2463   2.3558   2.7442   3.0864   3.3255
     3.4747   3.7832   3.8249   4.1236   4.5161   4.7413   5.7170   6.5881
     7.4108   7.8064   9.3054   9.8249   9.9737  11.1085  12.3981  13.3310
    14.9516  15.5465

          k = 0.3125-0.1804-0.0592 (  5056 PWs)   bands (ev):

   -99.9701 -99.9476 -98.8658 -98.8408 -51.3271 -51.3110 -51.3060 -51.2820
   -51.2178 -51.1944 -50.2046 -50.1811 -50.1480 -50.1170 -50.1058 -50.0887
   -16.6088 -16.5809  -4.1187  -4.1139  -1.3084  -1.2802  -0.6987  -0.6900
    -0.1129   0.2118   0.4463   0.6808   0.7616   0.7672   0.9661   1.2264
     1.6463   1.8468   2.0040   2.4845   2.5892   2.6183   2.9719   2.9880
     3.1898   3.4441   3.5372   3.9333   4.0285   4.2026   4.3325   5.4808
     7.5497   8.2265   8.8137  10.2802  10.5535  10.5596  13.9423  14.3147
    14.9268  15.2478

          k = 0.4375 0.7578-0.0592 (  5006 PWs)   bands (ev):

   -99.9673 -99.9449 -98.8631 -98.8381 -51.3505 -51.3265 -51.3195 -51.3034
   -51.2468 -51.2234 -50.2478 -50.2217 -50.1461 -50.1377 -50.1158 -50.1067
   -16.4280 -16.3999  -3.4927  -3.4761  -1.8341  -1.8148  -0.5920  -0.5877
    -0.0449  -0.0189   0.3139   0.3767   0.5686   0.7454   0.8374   1.4873
     1.7764   1.9489   2.2725   2.3740   2.6698   2.8324   3.1312   3.7633
     3.8873   4.0205   4.3373   4.4889   5.0507   5.1848   6.3835   6.4228
     7.8540   8.4048   9.3305   9.3816   9.8098  10.5491  12.0107  12.2715
    13.1602  13.4020

          k = 0.4375-0.2526-0.0592 (  4992 PWs)   bands (ev):

   -99.9679 -99.9455 -98.8637 -98.8387 -51.3520 -51.3281 -51.3211 -51.3050
   -51.2295 -51.2061 -50.2492 -50.2232 -50.1398 -50.1287 -50.1068 -50.0999
   -16.4663 -16.4383  -3.6581  -3.6424  -1.9072  -1.8876  -0.7155  -0.7103
    -0.0168   0.0298   0.2531   0.5219   0.5839   0.5929   0.7924   1.4314
     1.9717   2.1468   2.4251   2.5579   2.7019   3.0700   3.3177   3.7289
     3.7692   4.1661   4.1958   4.5255   4.8819   4.9433   5.8396   6.2285
     6.7410   7.7936   9.7529  10.2510  10.2657  10.6545  11.4742  11.7900
    13.1710  14.5676

          k = 0.1250 0.0000-0.0592 (  5130 PWs)   bands (ev):

   -99.9748 -99.9523 -98.8705 -98.8454 -51.3397 -51.3237 -51.2064 -51.1930
   -51.1820 -51.1700 -50.1742 -50.1125 -50.1023 -50.0921 -50.0778 -50.0646
   -16.8977 -16.8701  -5.1756  -5.1657  -1.8174  -1.4104  -1.1871  -0.4917
     0.4462   0.4698   0.5958   0.6332   0.8575   0.8715   1.4593   1.5866
     1.7844   1.8820   1.9585   2.0024   2.2733   2.3689   2.5421   2.5678
     2.6397   2.9204   3.0473   3.2271   3.2537   3.8590   3.9652   4.3596
     5.3807   9.2267  10.4649  10.6429  10.9632  10.9670  12.7632  12.9347
    13.3582  14.3581

          k =-0.1875 0.1804-0.0592 (  5074 PWs)   bands (ev):

   -99.9723 -99.9498 -98.8680 -98.8429 -51.3329 -51.3169 -51.2590 -51.2353
   -51.2075 -51.1838 -50.1675 -50.1565 -50.1282 -50.1070 -50.1051 -50.0788
   -16.7448 -16.7171  -4.5885  -4.5850  -1.2077  -1.0649  -0.6652  -0.3992
    -0.2281   0.2019   0.5148   0.5699   0.8459   0.8988   1.1522   1.2807
     1.5433   1.7906   2.0282   2.1028   2.2800   2.3526   2.5323   2.6896
     2.7147   3.1181   3.3137   3.4996   3.6210   3.8770   4.2383   4.8801
     6.8984   8.9183   9.3327  10.0845  10.7086  10.7137  13.4985  13.8583
    14.2302  15.3455

          k = 0.2500 0.0722-0.0592 (  5074 PWs)   bands (ev):

   -99.9723 -99.9498 -98.8680 -98.8429 -51.3329 -51.3169 -51.2589 -51.2346
   -51.2076 -51.1845 -50.1675 -50.1565 -50.1281 -50.1070 -50.1051 -50.0789
   -16.7448 -16.7171  -4.5885  -4.5850  -1.2076  -1.0651  -0.6649  -0.3985
    -0.2282   0.2026   0.5165   0.5734   0.8407   0.8969   1.1515   1.2801
     1.5431   1.7907   2.0281   2.1029   2.2808   2.3530   2.5327   2.6904
     2.7158   3.1174   3.3140   3.4992   3.6201   3.8768   4.2386   4.8791
     6.8974   8.9190   9.3332  10.0837  10.7103  10.7144  13.4975  13.8583
    14.2302  15.3453

          k =-0.3125 0.2526-0.0592 (  5044 PWs)   bands (ev):

   -99.9693 -99.9468 -98.8650 -98.8400 -51.3252 -51.3200 -51.3089 -51.2964
   -51.2249 -51.2014 -50.2184 -50.1935 -50.1458 -50.1241 -50.1059 -50.0955
   -16.5568 -16.5289  -3.9423  -3.9357  -1.4342  -1.4182  -0.6785  -0.6718
    -0.0119   0.1361   0.4216   0.6289   0.6588   0.7404   0.9286   1.2621
     1.7004   1.8814   2.0810   2.4234   2.4920   2.7417   3.1235   3.2865
     3.3564   3.4655   3.7299   4.0370   4.2296   4.4773   4.7631   5.8830
     7.5311   7.9803   8.9810  10.2852  10.3327  10.6103  13.2698  13.8370
    15.0522  15.4746

          k = 0.3750 0.1443-0.0592 (  5044 PWs)   bands (ev):

   -99.9693 -99.9468 -98.8650 -98.8400 -51.3252 -51.3199 -51.3089 -51.2960
   -51.2250 -51.2017 -50.2184 -50.1935 -50.1459 -50.1242 -50.1058 -50.0955
   -16.5568 -16.5289  -3.9421  -3.9352  -1.4344  -1.4183  -0.6782  -0.6716
    -0.0107   0.1384   0.4221   0.6250   0.6555   0.7408   0.9281   1.2628
     1.7000   1.8810   2.0801   2.4228   2.4925   2.7407   3.1255   3.2878
     3.3569   3.4660   3.7303   4.0374   4.2287   4.4776   4.7630   5.8824
     7.5319   7.9814   8.9811  10.2882  10.3326  10.6068  13.2697  13.8365
    15.0513  15.4746

          k =-0.4375 0.3248-0.0592 (  5006 PWs)   bands (ev):

   -99.9676 -99.9451 -98.8634 -98.8384 -51.3549 -51.3309 -51.3202 -51.3041
   -51.2348 -51.2114 -50.2520 -50.2259 -50.1384 -50.1341 -50.1069 -50.1048
   -16.4462 -16.4181  -3.5810  -3.5636  -1.9378  -1.9174  -0.6839  -0.6790
     0.0012   0.0199   0.2764   0.4807   0.5119   0.5675   0.7999   1.4738
     1.9817   2.0523   2.3886   2.4954   2.7854   2.9773   3.2866   3.8197
     3.9461   4.0871   4.3210   4.7345   4.8540   4.9762   6.2664   6.3889
     6.9889   7.9761   9.6019   9.9449  10.0397  10.5221  11.4527  12.2976
    12.6152  13.7886

          k = 0.5000 0.2165-0.0592 (  5006 PWs)   bands (ev):

   -99.9676 -99.9451 -98.8634 -98.8384 -51.3549 -51.3309 -51.3202 -51.3041
   -51.2348 -51.2114 -50.2520 -50.2259 -50.1384 -50.1341 -50.1069 -50.1048
   -16.4462 -16.4181  -3.5809  -3.5634  -1.9379  -1.9175  -0.6838  -0.6790
     0.0016   0.0206   0.2759   0.4805   0.5109   0.5674   0.7998   1.4741
     1.9814   2.0521   2.3884   2.4955   2.7855   2.9764   3.2865   3.8197
     3.9467   4.0875   4.3213   4.7344   4.8539   4.9766   6.2666   6.3893
     6.9891   7.9762   9.6022   9.9451  10.0391  10.5221  11.4522  12.2970
    12.6152  13.7889

          k = 0.4375-0.1804-0.0592 (  5020 PWs)   bands (ev):

   -99.9682 -99.9457 -98.8640 -98.8389 -51.3428 -51.3218 -51.3188 -51.3057
   -51.2313 -51.2081 -50.2402 -50.2144 -50.1413 -50.1306 -50.1064 -50.1016
   -16.4854 -16.4574  -3.7108  -3.6983  -1.7479  -1.7308  -0.6805  -0.6758
     0.0214   0.0622   0.3322   0.5327   0.5710   0.6449   0.8383   1.3972
     1.9022   1.9533   2.3818   2.4445   2.5881   2.8522   3.2530   3.6171
     3.7201   3.9217   4.1117   4.4020   4.4671   4.7855   5.6164   6.3266
     7.0315   7.7792   9.5912  10.1306  10.1594  11.2617  11.3837  12.3879
    14.0226  15.4310

          k =-0.3750-0.2887-0.0592 (  5020 PWs)   bands (ev):

   -99.9682 -99.9457 -98.8640 -98.8389 -51.3428 -51.3218 -51.3190 -51.3057
   -51.2313 -51.2079 -50.2402 -50.2144 -50.1413 -50.1306 -50.1064 -50.1015
   -16.4854 -16.4574  -3.7110  -3.6988  -1.7476  -1.7307  -0.6807  -0.6759
     0.0202   0.0602   0.3331   0.5340   0.5736   0.6449   0.8386   1.3965
     1.9026   1.9540   2.3823   2.4452   2.5877   2.8538   3.2523   3.6172
     3.7180   3.9206   4.1115   4.4021   4.4673   4.7851   5.6165   6.3266
     7.0303   7.7786   9.5897  10.1300  10.1615  11.2633  11.3837  12.3879
    14.0230  15.4307

          k = 0.3125-0.1083-0.0592 (  5064 PWs)   bands (ev):

   -99.9707 -99.9483 -98.8665 -98.8414 -51.3287 -51.3127 -51.2908 -51.2666
   -51.2167 -51.1935 -50.1900 -50.1699 -50.1472 -50.1158 -50.1056 -50.0875
   -16.6482 -16.6204  -4.2462  -4.2428  -1.1480  -1.0991  -0.6518  -0.6389
    -0.2015   0.2041   0.5220   0.6390   0.7414   0.8384   1.0717   1.1849
     1.5816   1.6768   1.9603   2.3372   2.4530   2.5750   2.8158   2.8783
     2.9689   3.1365   3.4173   3.8593   3.9660   4.1590   4.2783   5.3479
     7.5282   8.4769   8.8457  10.1624  10.5286  10.5425  13.9203  14.5799
    14.9078  15.4202

          k =-0.2500-0.2165-0.0592 (  5064 PWs)   bands (ev):

   -99.9707 -99.9483 -98.8665 -98.8414 -51.3287 -51.3127 -51.2909 -51.2671
   -51.2165 -51.1930 -50.1901 -50.1699 -50.1472 -50.1158 -50.1056 -50.0875
   -16.6482 -16.6204  -4.2463  -4.2431  -1.1481  -1.0991  -0.6521  -0.6390
    -0.2019   0.2023   0.5182   0.6407   0.7463   0.8409   1.0719   1.1846
     1.5816   1.6774   1.9604   2.3373   2.4532   2.5749   2.8144   2.8752
     2.9692   3.1372   3.4170   3.8595   3.9668   4.1590   4.2782   5.3488
     7.5287   8.4758   8.8452  10.1618  10.5279  10.5432  13.9212  14.5798
    14.9076  15.4204

          k = 0.1875-0.0361-0.0592 (  5100 PWs)   bands (ev):

   -99.9737 -99.9512 -98.8694 -98.8443 -51.3367 -51.3207 -51.2292 -51.2049
   -51.1993 -51.1763 -50.1704 -50.1296 -50.1079 -50.1000 -50.0968 -50.0708
   -16.8321 -16.8045  -4.9176  -4.9109  -1.5143  -1.2388  -0.9449  -0.2500
     0.1260   0.2192   0.5050   0.5534   0.9066   0.9195   1.2872   1.4363
     1.6417   1.8929   2.0288   2.1018   2.1663   2.2645   2.3585   2.6609
     2.7008   3.0226   3.1631   3.2461   3.3716   3.8508   4.1581   4.5054
     6.1281   9.1509   9.9313  10.3001  10.8589  10.8626  13.0957  13.3073
    13.7098  14.7755

          k =-0.1250-0.1443-0.0592 (  5100 PWs)   bands (ev):

   -99.9737 -99.9512 -98.8694 -98.8443 -51.3367 -51.3207 -51.2295 -51.2059
   -51.1990 -51.1752 -50.1704 -50.1297 -50.1079 -50.1000 -50.0967 -50.0708
   -16.8321 -16.8045  -4.9175  -4.9108  -1.5145  -1.2386  -0.9448  -0.2509
     0.1259   0.2198   0.5032   0.5480   0.9109   0.9226   1.2871   1.4360
     1.6416   1.8935   2.0290   2.1014   2.1665   2.2645   2.3586   2.6598
     2.6997   3.0225   3.1632   3.2470   3.3724   3.8510   4.1580   4.5061
     6.1290   9.1503   9.9314  10.3017  10.8563  10.8615  13.0969  13.3074
    13.7098  14.7757

          k = 0.0000-0.0722-0.0592 (  5138 PWs)   bands (ev):

   -99.9754 -99.9529 -98.8711 -98.8460 -51.3413 -51.3253 -51.1945 -51.1891
   -51.1715 -51.1647 -50.1763 -50.1102 -50.0929 -50.0885 -50.0661 -50.0613
   -16.9327 -16.9052  -5.3167  -5.3049  -1.9946  -1.5070  -1.3146  -0.6726
     0.6050   0.6265   0.6874   0.7195   0.7827   0.8056   1.6245   1.6819
     1.8987   1.9222   1.9288   1.9490   2.3355   2.4097   2.4255   2.4785
     2.8565   2.9216   3.0114   3.1135   3.3560   3.8211   3.8939   4.3330
     4.8196   9.2496  10.8145  10.8884  11.0079  11.0150  12.5514  12.7461
    13.1768  14.1303

          k = 0.3750 0.0000-0.0592 (  5074 PWs)   bands (ev):

   -99.9697 -99.9473 -98.8655 -98.8405 -51.3261 -51.3100 -51.3012 -51.2769
   -51.2321 -51.2091 -50.1998 -50.1771 -50.1477 -50.1296 -50.1065 -50.1014
   -16.5866 -16.5587  -4.0182  -4.0141  -1.0390  -1.0302  -0.5420  -0.5297
    -0.2546  -0.1210   0.5540   0.7057   0.7519   0.9501   1.0999   1.1654
     1.4324   1.6104   1.7685   2.1395   2.2826   2.4393   2.6730   3.0783
     3.1387   3.3626   3.4577   3.9420   4.2853   4.4549   4.9055   5.9700
     8.0453   8.2707   8.6512   9.9755  10.0552  10.4947  14.3808  15.1185
    15.3300  15.4321

          k =-0.3125 0.3969-0.0592 (  5032 PWs)   bands (ev):

   -99.9676 -99.9451 -98.8634 -98.8384 -51.3333 -51.3202 -51.3098 -51.3039
   -51.2567 -51.2331 -50.2307 -50.2053 -50.1561 -50.1403 -50.1244 -50.1060
   -16.4477 -16.4196  -3.5363  -3.5261  -1.4787  -1.4665  -0.4918  -0.4852
    -0.2696  -0.2282   0.4990   0.5808   0.8314   0.8832   1.1204   1.2224
     1.5616   1.8925   2.0079   2.0977   2.2656   2.6475   2.9791   3.3151
     3.4290   3.7102   3.9980   4.4734   4.9489   5.0090   6.7488   7.0325
     7.2414   8.0523   9.0418   9.3099  10.2951  11.5050  12.0203  12.8315
    14.1456  14.9930

          k = 0.5000 0.0722-0.0592 (  5032 PWs)   bands (ev):

   -99.9676 -99.9451 -98.8634 -98.8384 -51.3330 -51.3202 -51.3089 -51.3040
   -51.2569 -51.2338 -50.2306 -50.2053 -50.1561 -50.1403 -50.1244 -50.1060
   -16.4477 -16.4196  -3.5358  -3.5247  -1.4791  -1.4666  -0.4919  -0.4853
    -0.2686  -0.2280   0.4959   0.5795   0.8303   0.8842   1.1202   1.2223
     1.5609   1.8912   2.0083   2.0967   2.2655   2.6471   2.9796   3.3146
     3.4289   3.7106   3.9989   4.4748   4.9491   5.0097   6.7491   7.0357
     7.2459   8.0507   9.0408   9.3091  10.2937  11.5046  12.0195  12.8307
    14.1434  14.9927

          k =-0.4375 0.4691-0.0592 (  5032 PWs)   bands (ev):

   -99.9671 -99.9446 -98.8629 -98.8379 -51.3401 -51.3189 -51.3160 -51.3028
   -51.2631 -51.2398 -50.2376 -50.2117 -50.1621 -50.1411 -50.1271 -50.1067
   -16.4144 -16.3863  -3.4152  -3.4009  -1.6224  -1.6059  -0.4807  -0.4735
    -0.2889  -0.2603   0.4229   0.4970   0.8286   0.8762   1.0594   1.3396
     1.5682   1.9439   2.0556   2.2485   2.3735   2.6909   2.9746   3.5783
     3.6590   3.7999   4.1237   4.4347   5.2943   5.3817   6.5784   6.5984
     8.0455   8.7247   8.8999   9.3412   9.8527  11.1048  11.8615  12.9395
    13.1772  14.0839

          k = 0.6250 0.1443-0.0592 (  5032 PWs)   bands (ev):

   -99.9671 -99.9446 -98.8629 -98.8379 -51.3401 -51.3189 -51.3163 -51.3027
   -51.2630 -51.2396 -50.2376 -50.2117 -50.1621 -50.1411 -50.1271 -50.1067
   -16.4144 -16.3863  -3.4154  -3.4016  -1.6221  -1.6058  -0.4806  -0.4735
    -0.2895  -0.2604   0.4240   0.4975   0.8286   0.8761   1.0594   1.3396
     1.5686   1.9443   2.0559   2.2486   2.3737   2.6912   2.9745   3.5788
     3.6584   3.8001   4.1234   4.4345   5.2942   5.3817   6.5763   6.5962
     8.0458   8.7254   8.9005   9.3417   9.8526  11.1045  11.8621  12.9407
    13.1773  14.0839

          k = 0.4375-0.0361-0.0592 (  5052 PWs)   bands (ev):

   -99.9685 -99.9461 -98.8643 -98.8393 -51.3231 -51.3193 -51.3068 -51.2952
   -51.2458 -51.2228 -50.2175 -50.1931 -50.1477 -50.1399 -50.1159 -50.1051
   -16.5084 -16.4805  -3.7477  -3.7406  -1.2513  -1.2449  -0.5093  -0.5011
    -0.2367  -0.1920   0.5569   0.7001   0.7883   0.8951   1.1034   1.2420
     1.4206   1.6996   1.9407   2.1045   2.1709   2.5142   2.9664   3.0437
     3.1713   3.6275   3.8251   4.1899   4.5692   4.7285   5.7954   6.8031
     7.7555   7.8284   9.0071   9.5813   9.8744  11.0300  13.4758  14.1210
    15.1516  15.3832

          k =-0.2500-0.3608-0.0592 (  5052 PWs)   bands (ev):

   -99.9685 -99.9461 -98.8643 -98.8393 -51.3232 -51.3195 -51.3068 -51.2963
   -51.2455 -51.2217 -50.2176 -50.1932 -50.1476 -50.1399 -50.1159 -50.1050
   -16.5084 -16.4805  -3.7482  -3.7420  -1.2517  -1.2450  -0.5093  -0.5012
    -0.2370  -0.1918   0.5596   0.7029   0.7884   0.8954   1.1034   1.2417
     1.4213   1.6999   1.9409   2.1048   2.1715   2.5140   2.9668   3.0429
     3.1725   3.6262   3.8234   4.1877   4.5696   4.7283   5.7960   6.8049
     7.7510   7.8248   9.0087   9.5812   9.8753  11.0316  13.4761  14.1223
    15.1532  15.3874

          k = 0.3125 0.0361-0.0592 (  5062 PWs)   bands (ev):

   -99.9710 -99.9486 -98.8668 -98.8417 -51.3296 -51.3136 -51.2801 -51.2558
   -51.2185 -51.1955 -50.1799 -50.1646 -50.1441 -50.1169 -50.1054 -50.0894
   -16.6695 -16.6417  -4.3125  -4.3099  -1.0249  -0.9620  -0.5528  -0.5255
    -0.3001   0.0538   0.5533   0.6125   0.7033   0.9440   1.1116   1.2252
     1.4719   1.6131   1.9032   2.1246   2.3505   2.4965   2.5912   2.8092
     2.8851   3.1807   3.3089   3.8262   4.0442   4.1672   4.2027   5.3313
     7.5207   8.6468   8.9377  10.1515  10.4121  10.4243  13.9078  14.4034
    14.7501  15.8911

          k =-0.1250-0.2887-0.0592 (  5062 PWs)   bands (ev):

   -99.9710 -99.9486 -98.8668 -98.8417 -51.3296 -51.3136 -51.2806 -51.2574
   -51.2181 -51.1939 -50.1800 -50.1646 -50.1441 -50.1168 -50.1054 -50.0893
   -16.6695 -16.6417  -4.3125  -4.3099  -1.0256  -0.9622  -0.5542  -0.5270
    -0.2992   0.0540   0.5529   0.6121   0.7042   0.9442   1.1147   1.2265
     1.4714   1.6130   1.9029   2.1240   2.3503   2.4978   2.5904   2.8079
     2.8826   3.1814   3.3097   3.8265   4.0456   4.1677   4.2027   5.3342
     7.5245   8.6446   8.9348  10.1527  10.4102  10.4226  13.9096  14.4034
    14.7501  15.8912

          k = 0.0000-0.2165-0.0592 (  5092 PWs)   bands (ev):

   -99.9732 -99.9507 -98.8689 -98.8438 -51.3354 -51.3194 -51.2411 -51.2181
   -51.2008 -51.1764 -50.1689 -50.1404 -50.1124 -50.1046 -50.1003 -50.0726
   -16.8016 -16.7740  -4.8015  -4.7961  -1.3999  -1.1772  -0.8441  -0.2780
    -0.0505   0.1669   0.5725   0.6065   0.9172   0.9291   1.1584   1.3311
     1.6351   1.9192   2.0905   2.1109   2.1188   2.1977   2.4705   2.6846
     2.7451   3.1017   3.1104   3.2761   3.5222   3.7435   4.3285   4.5548
     6.4053   9.0804   9.6876  10.1715  10.8483  10.8547  13.2255  13.4918
    13.8830  14.9680

          k = 0.6250 0.0000-0.0592 (  5044 PWs)   bands (ev):

   -99.9666 -99.9442 -98.8624 -98.8374 -51.3179 -51.3175 -51.3016 -51.2975
   -51.2934 -51.2745 -50.2159 -50.1975 -50.1887 -50.1689 -50.1296 -50.1073
   -16.3852 -16.3571  -3.2738  -3.2615  -1.2659  -1.2531  -0.8168  -0.7977
    -0.3336  -0.3213   0.6766   0.8064   0.8626   0.9748   1.2590   1.4983
     1.6738   1.7561   1.7896   2.0498   2.0810   2.8240   2.9160   3.2003
     3.2887   3.5982   4.1296   4.3001   5.7969   5.8676   6.5445   6.5563
     7.9607   8.1598   9.3099  10.2105  10.5811  10.8076  12.3519  12.4942
    13.5932  14.3488

          k =-0.4375 0.6134-0.0592 (  5050 PWs)   bands (ev):

   -99.9670 -99.9445 -98.8627 -98.8378 -51.3286 -51.3186 -51.3044 -51.3023
   -51.2778 -51.2548 -50.2263 -50.2012 -50.1760 -50.1513 -50.1304 -50.1067
   -16.4072 -16.3791  -3.3695  -3.3573  -1.3925  -1.3795  -0.5767  -0.5525
    -0.3797  -0.3670   0.5823   0.7202   0.8495   1.0006   1.2569   1.3062
     1.6035   1.7439   1.8653   2.1170   2.2036   2.6422   2.9058   3.2825
     3.3615   3.6249   4.0690   4.4727   5.4085   5.4692   6.8384   6.8528
     7.9003   8.2725   8.6544   9.5699  10.5857  11.3675  11.9865  13.1810
    13.3847  14.1832

          k = 0.7500 0.0722-0.0592 (  5050 PWs)   bands (ev):

   -99.9670 -99.9445 -98.8627 -98.8378 -51.3291 -51.3186 -51.3063 -51.3022
   -51.2773 -51.2531 -50.2264 -50.2013 -50.1759 -50.1513 -50.1304 -50.1067
   -16.4072 -16.3791  -3.3701  -3.3591  -1.3931  -1.3797  -0.5746  -0.5516
    -0.3792  -0.3669   0.5834   0.7210   0.8495   1.0014   1.2567   1.3063
     1.6034   1.7442   1.8650   2.1175   2.2032   2.6424   2.9058   3.2832
     3.3620   3.6252   4.0680   4.4720   5.4094   5.4706   6.8282   6.8493
     7.9022   8.2757   8.6560   9.5708  10.5859  11.3672  11.9884  13.1827
    13.3866  14.1857

          k = 0.4375 0.1083-0.0592 (  5038 PWs)   bands (ev):

   -99.9684 -99.9460 -98.8642 -98.8392 -51.3301 -51.3223 -51.3072 -51.3050
   -51.2385 -51.2153 -50.2277 -50.2025 -50.1434 -50.1367 -50.1092 -50.1051
   -16.5003 -16.4723  -3.7380  -3.7288  -1.4946  -1.4820  -0.5981  -0.5924
    -0.0379   0.0068   0.4615   0.5368   0.6400   0.8158   0.9446   1.2564
     1.6607   1.9392   2.0326   2.2456   2.3561   2.7432   3.0876   3.3244
     3.4760   3.7842   3.8264   4.1251   4.5158   4.7417   5.7167   6.5877
     7.4135   7.8080   9.3060   9.8256   9.9717  11.1066  12.3979  13.3304
    14.9503  15.5442

          k =-0.1250-0.4330-0.0592 (  5038 PWs)   bands (ev):

   -99.9684 -99.9460 -98.8642 -98.8392 -51.3305 -51.3223 -51.3083 -51.3056
   -51.2380 -51.2137 -50.2278 -50.2025 -50.1434 -50.1366 -50.1092 -50.1050
   -16.5003 -16.4723  -3.7383  -3.7298  -1.4961  -1.4826  -0.5965  -0.5918
    -0.0383   0.0067   0.4642   0.5378   0.6410   0.8150   0.9442   1.2551
     1.6608   1.9386   2.0331   2.2464   2.3565   2.7433   3.0876   3.3259
     3.4760   3.7834   3.8258   4.1227   4.5173   4.7421   5.7178   6.5931
     7.4124   7.8025   9.3058   9.8241   9.9724  11.1081  12.3988  13.3331
    14.9531  15.5454

          k = 0.0000-0.3608-0.0592 (  5056 PWs)   bands (ev):

   -99.9701 -99.9476 -98.8658 -98.8408 -51.3271 -51.3110 -51.3064 -51.2835
   -51.2174 -51.1930 -50.2047 -50.1811 -50.1480 -50.1170 -50.1058 -50.0886
   -16.6087 -16.5809  -4.1186  -4.1134  -1.3105  -1.2816  -0.6970  -0.6893
    -0.1129   0.2112   0.4432   0.6791   0.7662   0.7692   0.9650   1.2243
     1.6453   1.8459   2.0037   2.4839   2.5887   2.6188   2.9719   2.9881
     3.1910   3.4441   3.5378   3.9361   4.0286   4.2027   4.3325   5.4860
     7.5555   8.2237   8.8104  10.2811  10.5509  10.5583  13.9439  14.3154
    14.9268  15.2479

          k = 0.8750 0.0000-0.0592 (  5006 PWs)   bands (ev):

   -99.9673 -99.9449 -98.8631 -98.8381 -51.3509 -51.3280 -51.3195 -51.3033
   -51.2464 -51.2220 -50.2478 -50.2217 -50.1461 -50.1377 -50.1158 -50.1067
   -16.4280 -16.3999  -3.4931  -3.4773  -1.8350  -1.8151  -0.5901  -0.5869
    -0.0448  -0.0190   0.3147   0.3767   0.5698   0.7452   0.8359   1.4867
     1.7778   1.9500   2.2718   2.3735   2.6680   2.8326   3.1319   3.7642
     3.8878   4.0211   4.3369   4.4879   5.0522   5.1853   6.3841   6.4226
     7.8534   8.4042   9.3298   9.3809   9.8110  10.5503  12.0122  12.2735
    13.1621  13.4024

          k = 0.0000-0.5052-0.0592 (  4992 PWs)   bands (ev):

   -99.9679 -99.9455 -98.8637 -98.8387 -51.3524 -51.3295 -51.3211 -51.3049
   -51.2291 -51.2047 -50.2493 -50.2233 -50.1398 -50.1287 -50.1068 -50.0999
   -16.4663 -16.4383  -3.6583  -3.6428  -1.9087  -1.8881  -0.7130  -0.7093
    -0.0179   0.0264   0.2532   0.5210   0.5884   0.5946   0.7901   1.4299
     1.9731   2.1472   2.4250   2.5579   2.7037   3.0650   3.3180   3.7289
     3.7691   4.1694   4.1958   4.5254   4.8819   4.9433   5.8408   6.2349
     6.7415   7.7906   9.7547  10.2482  10.2636  10.6558  11.4740  11.7930
    13.1733  14.5685

     the Fermi energy is     6.8064 ev

!    total energy              =   -1218.78247949 Ry
     Harris-Foulkes estimate   =   -1218.78247996 Ry
     estimated scf accuracy    <       0.00000048 Ry

     The total energy is the sum of the following terms:

     one-electron contribution =   -8084.40643085 Ry
     hartree contribution      =    4049.49160572 Ry
     xc contribution           =    -125.28353570 Ry
     ewald contribution        =    2972.82888906 Ry
     one-center paw contrib.   =     -31.41114548 Ry
     smearing contrib. (-TS)   =      -0.00186224 Ry

     convergence has been achieved in  17 iterations

     Forces acting on atoms (Ry/au):


     negative rho (up, down):  2.881E-04 0.000E+00
     atom    1 type  3   force =     0.00000000   -0.00001047   -0.00062419
     atom    2 type  2   force =     0.00000000    0.00004693    0.00066994
     atom    3 type  1   force =     0.00000000   -0.00001817    0.00035484
     atom    4 type  1   force =     0.00000000   -0.00001611    0.00088888
     atom    5 type  1   force =     0.00000000   -0.00001077    0.00019236
     atom    6 type  1   force =     0.00000000   -0.00001611    0.00006446
     atom    7 type  2   force =     0.00000000   -0.00001658   -0.00075751
     atom    8 type  3   force =     0.00000000    0.00004127   -0.00078877

     Total force =     0.001731     Total SCF correction =     0.006175
     SCF correction compared to forces is large: reduce conv_thr to get better values

     BFGS Geometry Optimization

     bfgs converged in   1 scf cycles and   0 bfgs steps
     (criteria: energy <  1.0E-04, force <  1.0E-03)

     End of BFGS Geometry Optimization

     Final energy   =   -1218.7824794893 Ry
Begin final coordinates

ATOMIC_POSITIONS (alat)
O        0.500001000   0.289330436  -1.007301227
C        0.500000000   0.289692478  -0.601844381
Au       0.000000000  -0.000561426  -0.075726971
Au       0.500000000   0.288601890   0.782821596
Au       0.000000000   0.577333299   1.661721331
Au       0.000000000   0.000092570   2.527102214
C        0.500000000   0.289236017   3.052772064
O        0.500001000   0.288999736   3.458415375
End final coordinates



     Writing output data file CO_Au_hollow.save

     init_run     :     41.53s CPU     20.95s WALL (       1 calls)
     electrons    :   2488.85s CPU   1176.70s WALL (       1 calls)
     forces       :     27.61s CPU      9.88s WALL (       1 calls)

     Called by init_run:
     wfcinit      :     39.26s CPU     18.71s WALL (       1 calls)
     potinit      :      0.66s CPU      0.67s WALL (       1 calls)

     Called by electrons:
     c_bands      :   2179.01s CPU    999.53s WALL (      18 calls)
     sum_band     :    296.06s CPU    163.05s WALL (      18 calls)
     v_of_rho     :      3.57s CPU      3.42s WALL (      18 calls)
     newd         :      6.66s CPU      7.10s WALL (      18 calls)
     mix_rho      :      0.34s CPU      0.33s WALL (      18 calls)

     Called by c_bands:
     init_us_2    :     25.39s CPU     15.17s WALL (    1976 calls)
     cegterg      :   2043.78s CPU    921.19s WALL (     936 calls)

     Called by *egterg:
     h_psi        :   1077.65s CPU    599.09s WALL (    3792 calls)
     s_psi        :    263.81s CPU     81.72s WALL (    3792 calls)
     g_psi        :      5.68s CPU      2.99s WALL (    2804 calls)
     cdiaghg      :     88.77s CPU     41.95s WALL (    3688 calls)

     Called by h_psi:
     add_vuspsi   :    269.74s CPU     83.86s WALL (    3792 calls)

     General routines
     calbec       :    381.51s CPU    120.97s WALL (    4780 calls)
     fft          :      1.26s CPU      1.19s WALL (     299 calls)
     ffts         :      0.10s CPU      0.08s WALL (      36 calls)
     fftw         :    580.00s CPU    452.12s WALL (  327578 calls)
     interpolate  :      0.44s CPU      0.30s WALL (      36 calls)
     davcio       :      0.13s CPU      1.05s WALL (      52 calls)

     Parallel routines
     fft_scatter  :     53.07s CPU     40.29s WALL (  327913 calls)

     PAW routines
     PAW_pot      :      3.52s CPU      3.53s WALL (      18 calls)
     PAW_symme    :      0.00s CPU      0.00s WALL (      36 calls)

     PWSCF        : 42m38.57s CPU    20m 9.36s WALL


   This run was terminated on:  20:51:58  18Jun2018            

=------------------------------------------------------------------------------=
   JOB DONE.
=------------------------------------------------------------------------------=
