
     Program PWSCF v.5.1 starts on 18Jun2018 at 16:57: 4 

     This program is part of the open-source Quantum ESPRESSO suite
     for quantum simulation of materials; please cite
         "P. Giannozzi et al., J. Phys.:Condens. Matter 21 395502 (2009);
          URL http://www.quantum-espresso.org", 
     in publications or presentations arising from this work. More details at
     http://www.quantum-espresso.org/quote

     Parallel version (MPI), running on     1 processors
     Waiting for input...
     Reading input from standard input
Warning: card &CELL ignored
Warning: card / ignored

     Current dimensions of program PWSCF are:
     Max number of different atomic species (ntypx) = 10
     Max number of k-points (npk) =  40000
     Max angular momentum in pseudopotentials (lmaxx) =  3
               file C.pbe-n-kjpaw_psl.1.0.0.UPF: wavefunction(s)  2S 2P renormalized
               file O.pbe-n-kjpaw_psl.0.1.U: wavefunction(s)  2P renormalized

     Subspace diagonalization in iterative solution of the eigenvalue problem:
     a serial algorithm will be used


     G-vector sticks info
     --------------------
     sticks:   dense  smooth     PW     G-vecs:    dense   smooth      PW
     Sum         649     313    109               114417    40121    7859



     bravais-lattice index     =            4
     lattice parameter (alat)  =       5.4490  a.u.
     unit-cell volume          =    1182.8411 (a.u.)^3
     number of atoms/cell      =            8
     number of atomic types    =            3
     number of electrons       =        96.00
     number of Kohn-Sham states=           58
     kinetic-energy cutoff     =      40.0000  Ry
     charge density cutoff     =     320.0000  Ry
     convergence threshold     =      1.0E-06
     mixing beta               =       0.7000
     number of iterations used =            8  plain     mixing
     Exchange-correlation      =  SLA  PW   PBX  PBC ( 1  4  3  4 0)
     nstep                     =           50


     celldm(1)=   5.449000  celldm(2)=   0.000000  celldm(3)=   8.442000
     celldm(4)=   0.000000  celldm(5)=   0.000000  celldm(6)=   0.000000

     crystal axes: (cart. coord. in units of alat)
               a(1) = (   1.000000   0.000000   0.000000 )  
               a(2) = (  -0.500000   0.866025   0.000000 )  
               a(3) = (   0.000000   0.000000   8.442000 )  

     reciprocal axes: (cart. coord. in units 2 pi/alat)
               b(1) = (  1.000000  0.577350 -0.000000 )  
               b(2) = (  0.000000  1.154701  0.000000 )  
               b(3) = (  0.000000 -0.000000  0.118455 )  


     PseudoPot. # 1 for Au read from file:
     /home/oropebuen/Documents/Job/Absortion/SSSP_efficiency_pseudos/Au_ONCV_PBE-1.0.upf
     MD5 check sum: 1009843a674e36925f098327e430af60
     Pseudo is Norm-conserving, Zval = 19.0
     Generated using ONCVPSP code by D. R. Hamann
     Using radial grid of  602 points,  8 beta functions with: 
                l(1) =   0
                l(2) =   0
                l(3) =   1
                l(4) =   1
                l(5) =   2
                l(6) =   2
                l(7) =   3
                l(8) =   3

     PseudoPot. # 2 for  C read from file:
     /home/oropebuen/Documents/Job/Absortion/SSSP_efficiency_pseudos/C.pbe-n-kjpaw_psl.1.0.0.UPF
     MD5 check sum: 8e281b34a927efac7e739263a90d7aed
     Pseudo is Projector augmented-wave + core cor, Zval =  4.0
     Generated using "atomic" code by A. Dal Corso  v.5.1
     Shape of augmentation charge: PSQ
     Using radial grid of 1073 points,  4 beta functions with: 
                l(1) =   0
                l(2) =   0
                l(3) =   1
                l(4) =   1
     Q(r) pseudized with 0 coefficients 


     PseudoPot. # 3 for  O read from file:
     /home/oropebuen/Documents/Job/Absortion/SSSP_efficiency_pseudos/O.pbe-n-kjpaw_psl.0.1.U
     MD5 check sum: 3f94a2996a3169367d6eb21d9b593f20
     Pseudo is Projector augmented-wave + core cor, Zval =  6.0
     Generated using "atomic" code by A. Dal Corso  v.5.0.99 svn rev. 10869
     Shape of augmentation charge: BESSEL
     Using radial grid of 1095 points,  4 beta functions with: 
                l(1) =   0
                l(2) =   0
                l(3) =   1
                l(4) =   1
     Q(r) pseudized with 0 coefficients 


     atomic species   valence    mass     pseudopotential
        Au            19.00   196.96600     Au( 1.00)
        C              4.00    12.01070      C( 1.00)
        O              6.00    15.99940      O( 1.00)

      2 Sym. Ops. (no inversion) found



   Cartesian axes

     site n.     atom                  positions (alat units)
         1           O   tau(   1) = (   0.5000010   0.2886750  -1.0153530  )
         2           C   tau(   2) = (   0.5000000   0.2896750  -0.6242440  )
         3           Au  tau(   3) = (   0.0000000   0.0000000   0.0000000  )
         4           Au  tau(   4) = (   0.5000000   0.2886750   0.8164970  )
         5           Au  tau(   5) = (   0.0000000   0.5773500   1.6329930  )
         6           Au  tau(   6) = (   0.0000000   0.0000000   2.4494900  )
         7           C   tau(   7) = (   0.5000000   0.2886750   3.0737340  )
         8           O   tau(   8) = (   0.5000010   0.2896750   3.4648430  )

     number of k points=    52  gaussian smearing, width (Ry)=  0.0100
                       cart. coord. in units 2pi/alat
        k(    1) = (   0.0625000   0.1082532  -0.0592277), wk =   0.0416667
        k(    2) = (   0.0625000   0.2525907  -0.0592277), wk =   0.0416667
        k(    3) = (   0.0625000   0.3969283  -0.0592277), wk =   0.0416667
        k(    4) = (   0.0625000   0.5412659  -0.0592277), wk =   0.0416667
        k(    5) = (   0.0625000  -0.4690971  -0.0592277), wk =   0.0416667
        k(    6) = (   0.0625000  -0.3247595  -0.0592277), wk =   0.0416667
        k(    7) = (   0.0625000  -0.1804220  -0.0592277), wk =   0.0416667
        k(    8) = (   0.0625000  -0.0360844  -0.0592277), wk =   0.0416667
        k(    9) = (   0.1875000   0.3247595  -0.0592277), wk =   0.0416667
        k(   10) = (   0.1875000   0.4690971  -0.0592277), wk =   0.0416667
        k(   11) = (   0.1875000   0.6134347  -0.0592277), wk =   0.0416667
        k(   12) = (   0.1875000  -0.3969283  -0.0592277), wk =   0.0416667
        k(   13) = (   0.1875000  -0.2525907  -0.0592277), wk =   0.0416667
        k(   14) = (   0.1875000  -0.1082532  -0.0592277), wk =   0.0416667
        k(   15) = (   0.3125000   0.5412659  -0.0592277), wk =   0.0416667
        k(   16) = (   0.3125000   0.6856034  -0.0592277), wk =   0.0416667
        k(   17) = (   0.3125000  -0.3247595  -0.0592277), wk =   0.0416667
        k(   18) = (   0.3125000  -0.1804220  -0.0592277), wk =   0.0416667
        k(   19) = (   0.4375000   0.7577722  -0.0592277), wk =   0.0416667
        k(   20) = (   0.4375000  -0.2525907  -0.0592277), wk =   0.0416667
        k(   21) = (   0.1250000   0.0000000  -0.0592277), wk =   0.0208333
        k(   22) = (  -0.1875000   0.1804220  -0.0592277), wk =   0.0416667
        k(   23) = (   0.2500000   0.0721688  -0.0592277), wk =   0.0416667
        k(   24) = (  -0.3125000   0.2525907  -0.0592277), wk =   0.0416667
        k(   25) = (   0.3750000   0.1443376  -0.0592277), wk =   0.0416667
        k(   26) = (  -0.4375000   0.3247595  -0.0592277), wk =   0.0416667
        k(   27) = (   0.5000000   0.2165064  -0.0592277), wk =   0.0416667
        k(   28) = (   0.4375000  -0.1804220  -0.0592277), wk =   0.0416667
        k(   29) = (  -0.3750000  -0.2886751  -0.0592277), wk =   0.0416667
        k(   30) = (   0.3125000  -0.1082532  -0.0592277), wk =   0.0416667
        k(   31) = (  -0.2500000  -0.2165064  -0.0592277), wk =   0.0416667
        k(   32) = (   0.1875000  -0.0360844  -0.0592277), wk =   0.0416667
        k(   33) = (  -0.1250000  -0.1443376  -0.0592277), wk =   0.0416667
        k(   34) = (   0.0000000  -0.0721688  -0.0592277), wk =   0.0208333
        k(   35) = (   0.3750000   0.0000000  -0.0592277), wk =   0.0208333
        k(   36) = (  -0.3125000   0.3969283  -0.0592277), wk =   0.0416667
        k(   37) = (   0.5000000   0.0721688  -0.0592277), wk =   0.0416667
        k(   38) = (  -0.4375000   0.4690971  -0.0592277), wk =   0.0416667
        k(   39) = (   0.6250000   0.1443376  -0.0592277), wk =   0.0416667
        k(   40) = (   0.4375000  -0.0360844  -0.0592277), wk =   0.0416667
        k(   41) = (  -0.2500000  -0.3608439  -0.0592277), wk =   0.0416667
        k(   42) = (   0.3125000   0.0360844  -0.0592277), wk =   0.0416667
        k(   43) = (  -0.1250000  -0.2886751  -0.0592277), wk =   0.0416667
        k(   44) = (   0.0000000  -0.2165064  -0.0592277), wk =   0.0208333
        k(   45) = (   0.6250000   0.0000000  -0.0592277), wk =   0.0208333
        k(   46) = (  -0.4375000   0.6134347  -0.0592277), wk =   0.0416667
        k(   47) = (   0.7500000   0.0721688  -0.0592277), wk =   0.0416667
        k(   48) = (   0.4375000   0.1082532  -0.0592277), wk =   0.0416667
        k(   49) = (  -0.1250000  -0.4330127  -0.0592277), wk =   0.0416667
        k(   50) = (   0.0000000  -0.3608439  -0.0592277), wk =   0.0208333
        k(   51) = (   0.8750000   0.0000000  -0.0592277), wk =   0.0208333
        k(   52) = (   0.0000000  -0.5051815  -0.0592277), wk =   0.0208333

     Dense  grid:   114417 G-vectors     FFT dimensions: (  32,  32, 270)

     Smooth grid:    40121 G-vectors     FFT dimensions: (  24,  24, 192)

     Largest allocated arrays     est. size (Mb)     dimensions
        Kohn-Sham Wavefunctions         4.55 Mb     (    5138,   58)
        NL pseudopotentials            12.54 Mb     (    5138,  160)
        Each V/rho on FFT grid          4.22 Mb     (  276480)
        Each G-vector array             0.87 Mb     (  114417)
        G-vector shells                 0.04 Mb     (    5581)
     Largest temporary arrays     est. size (Mb)     dimensions
        Auxiliary wavefunctions        18.19 Mb     (    5138,  232)
        Each subspace H/S matrix        0.82 Mb     (     232,  232)
        Each <psi_i|beta_j> matrix      0.14 Mb     (     160,   58)
        Arrays for rho mixing          33.75 Mb     (  276480,    8)

     Check: negative/imaginary core charge=   -0.000004    0.000000

     Initial potential from superposition of free atoms
     Check: negative starting charge=   -0.000200

     starting charge   95.91008, renormalised to   96.00000

     negative rho (up, down):  2.006E-04 0.000E+00
     Starting wfc are   16 randomized atomic wfcs +   42 random wfc
     Checking if some PAW data can be deallocated... 

     total cpu time spent up to now is       17.4 secs

     per-process dynamical memory:   330.3 Mb

     Self-consistent Calculation

     iteration #  1     ecut=    40.00 Ry     beta=0.70
     Davidson diagonalization with overlap
     ethr =  1.00E-02,  avg # of iterations =  7.3

     Threshold (ethr) on eigenvalues was too large:
     Diagonalizing with lowered threshold

     Davidson diagonalization with overlap
     ethr =  5.38E-04,  avg # of iterations =  1.1

     negative rho (up, down):  2.934E-04 0.000E+00

     total cpu time spent up to now is      217.2 secs

     total energy              =   -1218.50513084 Ry
     Harris-Foulkes estimate   =   -1218.89931943 Ry
     estimated scf accuracy    <       0.51564782 Ry

     iteration #  2     ecut=    40.00 Ry     beta=0.70
     Davidson diagonalization with overlap
     ethr =  5.37E-04,  avg # of iterations =  3.7

     negative rho (up, down):  4.259E-04 0.000E+00

     total cpu time spent up to now is      287.6 secs

     total energy              =   -1217.98865535 Ry
     Harris-Foulkes estimate   =   -1219.37746748 Ry
     estimated scf accuracy    <       5.35383420 Ry

     iteration #  3     ecut=    40.00 Ry     beta=0.70
     Davidson diagonalization with overlap
     ethr =  5.37E-04,  avg # of iterations =  6.2

     negative rho (up, down):  3.085E-04 0.000E+00

     total cpu time spent up to now is      366.8 secs

     total energy              =   -1218.30552325 Ry
     Harris-Foulkes estimate   =   -1219.01980036 Ry
     estimated scf accuracy    <      10.45576570 Ry

     iteration #  4     ecut=    40.00 Ry     beta=0.70
     Davidson diagonalization with overlap
     ethr =  5.37E-04,  avg # of iterations =  4.2

     negative rho (up, down):  2.945E-04 0.000E+00

     total cpu time spent up to now is      432.2 secs

     total energy              =   -1218.53807962 Ry
     Harris-Foulkes estimate   =   -1218.90237397 Ry
     estimated scf accuracy    <       4.64737721 Ry

     iteration #  5     ecut=    40.00 Ry     beta=0.70
     Davidson diagonalization with overlap
     ethr =  5.37E-04,  avg # of iterations =  3.9

     negative rho (up, down):  2.829E-04 0.000E+00

     total cpu time spent up to now is      494.7 secs

     total energy              =   -1218.68320722 Ry
     Harris-Foulkes estimate   =   -1218.89675683 Ry
     estimated scf accuracy    <       1.93061839 Ry

     iteration #  6     ecut=    40.00 Ry     beta=0.70
     Davidson diagonalization with overlap
     ethr =  5.37E-04,  avg # of iterations =  3.0

     negative rho (up, down):  2.803E-04 0.000E+00

     total cpu time spent up to now is      550.8 secs

     total energy              =   -1218.75637307 Ry
     Harris-Foulkes estimate   =   -1218.76698276 Ry
     estimated scf accuracy    <       0.07864467 Ry

     iteration #  7     ecut=    40.00 Ry     beta=0.70
     Davidson diagonalization with overlap
     ethr =  8.19E-05,  avg # of iterations =  3.0

     negative rho (up, down):  2.829E-04 0.000E+00

     total cpu time spent up to now is      605.2 secs

     total energy              =   -1218.75784057 Ry
     Harris-Foulkes estimate   =   -1218.76289009 Ry
     estimated scf accuracy    <       0.04676647 Ry

     iteration #  8     ecut=    40.00 Ry     beta=0.70
     Davidson diagonalization with overlap
     ethr =  4.87E-05,  avg # of iterations =  2.2

     negative rho (up, down):  2.883E-04 0.000E+00

     total cpu time spent up to now is      659.0 secs

     total energy              =   -1218.75837198 Ry
     Harris-Foulkes estimate   =   -1218.76091818 Ry
     estimated scf accuracy    <       0.01574545 Ry

     iteration #  9     ecut=    40.00 Ry     beta=0.70
     Davidson diagonalization with overlap
     ethr =  1.64E-05,  avg # of iterations =  3.2

     negative rho (up, down):  2.925E-04 0.000E+00

     total cpu time spent up to now is      712.2 secs

     total energy              =   -1218.75948651 Ry
     Harris-Foulkes estimate   =   -1218.75981180 Ry
     estimated scf accuracy    <       0.00414162 Ry

     iteration # 10     ecut=    40.00 Ry     beta=0.70
     Davidson diagonalization with overlap
     ethr =  4.31E-06,  avg # of iterations =  2.8

     negative rho (up, down):  2.935E-04 0.000E+00

     total cpu time spent up to now is      763.9 secs

     total energy              =   -1218.75963742 Ry
     Harris-Foulkes estimate   =   -1218.75967302 Ry
     estimated scf accuracy    <       0.00013056 Ry

     iteration # 11     ecut=    40.00 Ry     beta=0.70
     Davidson diagonalization with overlap
     ethr =  1.36E-07,  avg # of iterations =  2.0

     negative rho (up, down):  2.942E-04 0.000E+00

     total cpu time spent up to now is      821.3 secs

     total energy              =   -1218.75964866 Ry
     Harris-Foulkes estimate   =   -1218.75967217 Ry
     estimated scf accuracy    <       0.00014436 Ry

     iteration # 12     ecut=    40.00 Ry     beta=0.70
     Davidson diagonalization with overlap
     ethr =  1.36E-07,  avg # of iterations =  1.1

     negative rho (up, down):  2.945E-04 0.000E+00

     total cpu time spent up to now is      877.7 secs

     total energy              =   -1218.75965950 Ry
     Harris-Foulkes estimate   =   -1218.75966057 Ry
     estimated scf accuracy    <       0.00000227 Ry

     iteration # 13     ecut=    40.00 Ry     beta=0.70
     Davidson diagonalization with overlap
     ethr =  2.36E-09,  avg # of iterations =  2.9

     negative rho (up, down):  2.947E-04 0.000E+00

     total cpu time spent up to now is      956.6 secs

     total energy              =   -1218.75966006 Ry
     Harris-Foulkes estimate   =   -1218.75966054 Ry
     estimated scf accuracy    <       0.00000172 Ry

     iteration # 14     ecut=    40.00 Ry     beta=0.70
     Davidson diagonalization with overlap
     ethr =  1.79E-09,  avg # of iterations =  2.0

     negative rho (up, down):  2.948E-04 0.000E+00

     total cpu time spent up to now is     1023.7 secs

     total energy              =   -1218.75966017 Ry
     Harris-Foulkes estimate   =   -1218.75966043 Ry
     estimated scf accuracy    <       0.00000379 Ry

     iteration # 15     ecut=    40.00 Ry     beta=0.70
     Davidson diagonalization with overlap
     ethr =  1.79E-09,  avg # of iterations =  1.2

     negative rho (up, down):  2.949E-04 0.000E+00

     total cpu time spent up to now is     1084.2 secs

     End of self-consistent calculation

          k = 0.0625 0.1083-0.0592 (  5130 PWs)   bands (ev):

   -99.0247 -99.0078 -98.4628 -98.4318 -50.3755 -50.3625 -50.2597 -50.2457
   -50.2414 -50.2272 -49.8180 -49.7155 -49.6965 -49.6889 -49.6650 -49.6522
   -17.6656 -17.6542  -3.9977  -3.9719  -1.8822  -1.4761  -1.0195  -0.0859
     0.5285   0.5401   1.0866   1.1139   1.1452   1.1484   2.0101   2.0586
     2.1216   2.3209   2.4354   2.4495   2.5948   2.6769   2.7966   2.8770
     3.2136   3.4969   3.6027   3.7782   3.7998   4.3212   4.5041   4.9956
     5.9506   9.7063  10.8514  11.1624  11.4330  11.4428  12.4434  12.5160
    13.0391  14.0934

          k = 0.0625 0.2526-0.0592 (  5074 PWs)   bands (ev):

   -99.0222 -99.0053 -98.4602 -98.4294 -50.3682 -50.3552 -50.3120 -50.2939
   -50.2604 -50.2418 -49.8086 -49.7579 -49.7191 -49.7036 -49.7016 -49.6660
   -17.5264 -17.5149  -3.4407  -3.4332  -1.2702  -1.1648  -0.5844   0.0758
     0.1711   0.5080   0.9163   0.9392   0.9889   1.1084   1.5749   1.7868
     1.8313   2.1975   2.4148   2.5807   2.8263   2.9298   3.0594   3.1781
     3.2736   3.4872   3.6724   3.9966   4.0862   4.4383   4.8700   5.4775
     7.1984   9.0644   9.6469  10.6606  11.1251  11.1618  13.4296  13.4603
    13.8438  15.0198

          k = 0.0625 0.3969-0.0592 (  5044 PWs)   bands (ev):

   -99.0192 -99.0023 -98.4572 -98.4265 -50.3733 -50.3597 -50.3552 -50.3465
   -50.2777 -50.2592 -49.8221 -49.8036 -49.7565 -49.7225 -49.7115 -49.6820
   -17.3558 -17.3443  -2.7975  -2.7950  -1.3052  -1.2929  -0.3511  -0.2982
     0.1819   0.4676   0.6630   0.7160   0.7950   0.9853   1.1588   1.6282
     2.2944   2.4299   2.6357   2.6848   2.8718   3.1542   3.5844   3.8247
     4.0162   4.2404   4.3839   4.6244   4.7618   5.0620   5.1941   6.3071
     7.6709   8.1295   9.1220  10.6998  10.7656  11.0475  13.5236  14.1630
    15.0405  15.3123

          k = 0.0625 0.5413-0.0592 (  5006 PWs)   bands (ev):

   -99.0176 -99.0006 -98.4555 -98.4249 -50.4076 -50.3895 -50.3549 -50.3418
   -50.2875 -50.2690 -49.8532 -49.8256 -49.7565 -49.7337 -49.7178 -49.6910
   -17.2558 -17.2443  -2.3609  -2.3577  -1.6833  -1.6719  -0.4807  -0.4394
     0.2516   0.3355   0.4992   0.5787   0.6571   0.8035   1.0206   1.8882
     2.3556   2.4297   2.6312   2.9162   3.2653   3.4637   3.8310   4.5980
     4.6786   4.7401   4.9320   5.1799   5.3009   5.5021   6.8014   7.0021
     7.4919   8.4009   9.8007  10.0816  10.5412  10.6150  11.3169  12.5152
    13.1384  14.3449

          k = 0.0625-0.4691-0.0592 (  5020 PWs)   bands (ev):

   -99.0182 -99.0012 -98.4561 -98.4255 -50.3956 -50.3774 -50.3566 -50.3435
   -50.2841 -50.2655 -49.8419 -49.8168 -49.7585 -49.7297 -49.7153 -49.6878
   -17.2912 -17.2797  -2.5347  -2.5332  -1.5169  -1.5054  -0.4361  -0.3934
     0.2630   0.3913   0.5570   0.6274   0.7029   0.9002   1.0283   1.7418
     2.3736   2.4521   2.6146   2.8819   3.1235   3.3023   3.7446   4.2961
     4.4312   4.5775   4.8533   4.9004   5.0324   5.3163   6.0209   6.7120
     7.4217   8.0399   9.6168  10.6002  10.6217  11.4742  11.6024  12.6172
    14.3761  15.9394

          k = 0.0625-0.3248-0.0592 (  5064 PWs)   bands (ev):

   -99.0207 -99.0038 -98.4587 -98.4279 -50.3638 -50.3508 -50.3439 -50.3257
   -50.2694 -50.2509 -49.8075 -49.7859 -49.7419 -49.7134 -49.7074 -49.6743
   -17.4387 -17.4272  -3.1093  -3.1053  -1.1689  -1.1485  -0.3427  -0.1420
     0.0354   0.5221   0.7934   0.8304   0.9161   1.0895   1.3869   1.6554
     2.0048   2.2212   2.4467   2.7333   2.7803   3.0663   3.3136   3.3988
     3.6291   3.7553   3.9841   4.3037   4.4145   4.6725   4.9487   5.8796
     7.6221   8.5637   9.1493  10.6439  10.9414  11.0075  14.0871  14.1573
    14.5110  15.6964

          k = 0.0625-0.1804-0.0592 (  5100 PWs)   bands (ev):

   -99.0236 -99.0067 -98.4617 -98.4308 -50.3723 -50.3593 -50.2825 -50.2643
   -50.2520 -50.2335 -49.8136 -49.7316 -49.7049 -49.6957 -49.6844 -49.6582
   -17.6058 -17.5944  -3.7529  -3.7368  -1.5835  -1.3119  -0.8182   0.1940
     0.3677   0.3940   0.9847   1.0305   1.0748   1.1045   1.8002   1.8870
     1.9730   2.2839   2.5326   2.6515   2.6783   2.7452   2.7765   2.9849
     3.0949   3.4337   3.5623   3.8291   3.8751   4.3691   4.7291   5.1540
     6.6021   9.4700  10.2745  10.8612  11.2966  11.3192  12.8811  12.8869
    13.3571  14.4742

          k = 0.0625-0.0361-0.0592 (  5138 PWs)   bands (ev):

   -99.0253 -99.0084 -98.4634 -98.4324 -50.3772 -50.3643 -50.2472 -50.2423
   -50.2288 -50.2240 -49.8205 -49.7106 -49.6886 -49.6853 -49.6536 -49.6490
   -17.6976 -17.6862  -4.1324  -4.1002  -2.0500  -1.5748  -1.1389  -0.2711
     0.6158   0.6264   1.1575   1.1667   1.1767   1.1817   2.1405   2.1855
     2.2346   2.2938   2.3079   2.3551   2.6227   2.6736   2.6912   2.7429
     3.5673   3.5770   3.7283   3.7606   3.7822   4.2384   4.3634   4.9507
     5.4217   9.8037  11.2427  11.3911  11.5020  11.5092  12.1714  12.3306
    12.8807  13.8960

          k = 0.1875 0.3248-0.0592 (  5074 PWs)   bands (ev):

   -99.0197 -99.0028 -98.4577 -98.4270 -50.3610 -50.3543 -50.3479 -50.3361
   -50.2848 -50.2663 -49.8093 -49.7910 -49.7541 -49.7235 -49.7103 -49.6888
   -17.3827 -17.3712  -2.8923  -2.8886  -1.1446  -1.1356  -0.0143  -0.0027
     0.0807   0.3387   0.5642   0.7873   1.2146   1.3422   1.4217   1.5648
     1.7276   1.9019   2.2389   2.5339   2.7147   2.9012   3.1029   3.5727
     3.7004   3.8657   4.2912   4.6837   4.8635   4.9832   5.3039   6.4225
     7.8794   8.3908   9.2317  10.3312  10.3620  11.0351  14.6807  14.7010
    15.0298  15.6288

          k = 0.1875 0.4691-0.0592 (  5032 PWs)   bands (ev):

   -99.0176 -99.0006 -98.4555 -98.4249 -50.3859 -50.3678 -50.3549 -50.3417
   -50.3096 -50.2911 -49.8324 -49.8084 -49.7638 -49.7468 -49.7185 -49.7086
   -17.2570 -17.2455  -2.3812  -2.3793  -1.3397  -1.3303  -0.2320  -0.2128
     0.0945   0.1037   0.6839   0.8321   1.0391   1.2155   1.3602   1.6027
     1.9647   2.2386   2.3793   2.5584   2.7781   3.2084   3.4285   3.8920
     3.9517   4.2316   4.7453   5.1388   5.3521   5.4814   7.0876   7.4462
     7.6451   8.4205   9.5219   9.7133  10.4777  11.7129  12.4513  12.9657
    14.2251  15.3091

          k = 0.1875 0.6134-0.0592 (  5032 PWs)   bands (ev):

   -99.0171 -99.0001 -98.4550 -98.4245 -50.3929 -50.3748 -50.3534 -50.3403
   -50.3158 -50.2973 -49.8390 -49.8131 -49.7642 -49.7526 -49.7192 -49.7142
   -17.2270 -17.2155  -2.2323  -2.2314  -1.4253  -1.4156  -0.3091  -0.2917
     0.0426   0.0460   0.6672   0.8238   1.0055   1.2401   1.2895   1.7297
     1.8494   2.2482   2.4123   2.7980   2.9130   3.2399   3.5228   4.1740
     4.2153   4.3844   4.7732   5.0902   5.4480   5.5819   7.2881   7.3069
     8.3738   9.1341   9.3193   9.7445  10.2472  11.1757  11.9500  13.0495
    13.4155  14.3920

          k = 0.1875-0.3969-0.0592 (  5052 PWs)   bands (ev):

   -99.0185 -99.0016 -98.4564 -98.4258 -50.3726 -50.3575 -50.3545 -50.3444
   -50.2985 -50.2800 -49.8209 -49.8005 -49.7621 -49.7361 -49.7149 -49.7001
   -17.3120 -17.3005  -2.6160  -2.6129  -1.2314  -1.2223  -0.1111  -0.0910
     0.1821   0.2100   0.6111   0.7949   1.0892   1.2608   1.4656   1.5492
     1.8773   2.0932   2.3299   2.4719   2.5863   3.0889   3.3281   3.5999
     3.7416   4.0426   4.6339   4.9968   5.1376   5.2818   6.1428   7.1200
     7.8354   8.0963   9.5424   9.9820  10.0158  11.4881  13.7454  14.4573
    15.3217  15.5480

          k = 0.1875-0.2526-0.0592 (  5062 PWs)   bands (ev):

   -99.0210 -99.0041 -98.4590 -98.4282 -50.3647 -50.3517 -50.3333 -50.3150
   -50.2712 -50.2528 -49.8062 -49.7761 -49.7379 -49.7116 -49.7063 -49.6764
   -17.4580 -17.4465  -3.1783  -3.1740  -1.1371  -1.1105  -0.3129   0.0226
     0.0913   0.4853   0.7504   0.8425   1.0936   1.2632   1.4350   1.6563
     1.7450   1.9637   2.3031   2.6149   2.7796   2.9189   2.9814   3.4791
     3.5875   3.7286   3.8522   4.2547   4.5118   4.7162   4.8052   5.8922
     7.6048   8.7398   9.3325  10.5851  10.7782  10.9588  13.9749  14.0266
    14.3468  15.5493

          k = 0.1875-0.1083-0.0592 (  5092 PWs)   bands (ev):

   -99.0231 -99.0062 -98.4612 -98.4303 -50.3709 -50.3579 -50.2938 -50.2753
   -50.2541 -50.2358 -49.8117 -49.7417 -49.7073 -49.6976 -49.6944 -49.6598
   -17.5781 -17.5666  -3.6429  -3.6304  -1.4618  -1.2529  -0.7407   0.1704
     0.2816   0.4021   0.9744   1.0341   1.0418   1.0639   1.6896   1.8964
     1.9222   2.3049   2.4823   2.6692   2.7468   2.8402   2.8587   3.0151
     3.1777   3.4388   3.4548   3.8666   4.0027   4.2812   4.9873   5.1288
     6.8271   9.3246  10.0039  10.7578  11.2954  11.3021  13.0603  13.0740
    13.5164  14.6577

          k = 0.3125 0.5413-0.0592 (  5044 PWs)   bands (ev):

   -99.0166 -98.9997 -98.4545 -98.4240 -50.3707 -50.3525 -50.3521 -50.3501
   -50.3389 -50.3316 -49.8182 -49.8005 -49.7946 -49.7583 -49.7321 -49.7206
   -17.2006 -17.1890  -2.1151  -2.1129  -1.0434  -1.0335  -0.6914  -0.6803
    -0.0358  -0.0128   1.0371   1.0761   1.3077   1.4321   1.4447   1.7460
     1.9166   2.1476   2.1958   2.3897   2.4928   3.5031   3.5907   3.8036
     3.9170   4.2908   4.7619   4.9658   5.5329   5.6722   7.4064   7.4166
     8.4338   8.6052   9.6237  10.6162  10.8940  11.1457  12.5515  12.7346
    13.6980  14.5322

          k = 0.3125 0.6856-0.0592 (  5050 PWs)   bands (ev):

   -99.0170 -99.0000 -98.4548 -98.4243 -50.3815 -50.3632 -50.3531 -50.3399
   -50.3304 -50.3120 -49.8280 -49.8046 -49.7792 -49.7515 -49.7280 -49.7169
   -17.2205 -17.2089  -2.2106  -2.2085  -1.2379  -1.2285  -0.3767  -0.3652
    -0.0517  -0.0315   0.8905   0.9840   1.1959   1.4006   1.5295   1.6407
     1.8322   2.1121   2.2676   2.4522   2.6746   3.3161   3.4836   3.8596
     3.9578   4.2221   4.7631   5.1275   5.4948   5.5849   7.4638   7.4726
     8.2624   8.7692   9.0670   9.8801  10.9865  11.6428  12.1508  13.2256
    13.6673  14.4189

          k = 0.3125-0.3248-0.0592 (  5038 PWs)   bands (ev):

   -99.0184 -99.0015 -98.4563 -98.4257 -50.3829 -50.3645 -50.3572 -50.3441
   -50.2912 -50.2729 -49.8301 -49.8078 -49.7590 -49.7351 -49.7137 -49.6942
   -17.3046 -17.2931  -2.5892  -2.5872  -1.3533  -1.3431  -0.2898  -0.2574
     0.3266   0.3835   0.5095   0.6646   0.8942   1.0571   1.1812   1.6172
     2.1777   2.3720   2.5285   2.6573   2.7609   3.2285   3.4662   3.8497
     3.9897   4.3637   4.5834   4.9209   5.0811   5.3105   6.0809   6.9369
     7.6525   8.0571   9.5250  10.2567  10.3089  11.5116  12.6106  13.5998
    15.1982  15.7473

          k = 0.3125-0.1804-0.0592 (  5056 PWs)   bands (ev):

   -99.0201 -99.0031 -98.4580 -98.4273 -50.3622 -50.3588 -50.3490 -50.3405
   -50.2706 -50.2523 -49.8125 -49.7968 -49.7502 -49.7148 -49.7102 -49.6752
   -17.4029 -17.3914  -2.9780  -2.9745  -1.2308  -1.2160  -0.3679  -0.2699
     0.0467   0.4822   0.7836   0.8171   0.8260   0.9700   1.2492   1.6451
     2.2407   2.4360   2.5485   2.7428   2.9435   3.0526   3.6120   3.6747
     3.8243   3.9783   4.0314   4.4481   4.4850   4.6838   5.0216   5.9693
     7.6532   8.3310   9.0182  10.7409  10.9912  10.9993  14.1758  14.5097
    14.6319  14.8817

          k = 0.4375 0.7578-0.0592 (  5006 PWs)   bands (ev):

   -99.0173 -99.0004 -98.4552 -98.4247 -50.4032 -50.3848 -50.3541 -50.3410
   -50.2995 -50.2813 -49.8490 -49.8217 -49.7547 -49.7471 -49.7175 -49.7017
   -17.2393 -17.2278  -2.2811  -2.2793  -1.6046  -1.5942  -0.3948  -0.3603
     0.2722   0.2890   0.4412   0.5742   0.8002   0.9751   1.1067   1.8788
     2.0782   2.3196   2.5949   2.8793   3.1728   3.3563   3.6971   4.3949
     4.4823   4.6272   4.9195   5.0524   5.3783   5.5666   7.0888   7.1517
     8.2300   8.8505   9.6416   9.7262  10.2754  10.5189  11.6811  12.6354
    13.5689  13.8664

          k = 0.4375-0.2526-0.0592 (  4992 PWs)   bands (ev):

   -99.0179 -99.0010 -98.4558 -98.4252 -50.4048 -50.3863 -50.3558 -50.3427
   -50.2823 -50.2640 -49.8506 -49.8237 -49.7580 -49.7270 -49.7179 -49.6861
   -17.2740 -17.2624  -2.4543  -2.4515  -1.6436  -1.6323  -0.5009  -0.4590
     0.2020   0.3060   0.5544   0.6648   0.6741   0.7719   0.9952   1.8354
     2.4298   2.5772   2.5793   2.9422   3.1583   3.5886   3.8075   4.6220
     4.6564   4.7068   4.9054   5.1359   5.2699   5.3779   6.2704   6.6839
     7.2712   8.1211   9.8318  10.5462  10.7420  10.7584  11.5173  12.1553
    13.5537  15.1841

          k = 0.1250 0.0000-0.0592 (  5130 PWs)   bands (ev):

   -99.0247 -99.0078 -98.4628 -98.4318 -50.3755 -50.3625 -50.2597 -50.2457
   -50.2411 -50.2275 -49.8180 -49.7155 -49.6964 -49.6889 -49.6650 -49.6521
   -17.6656 -17.6542  -3.9977  -3.9719  -1.8822  -1.4761  -1.0195  -0.0859
     0.5288   0.5403   1.0872   1.1141   1.1447   1.1478   2.0101   2.0587
     2.1216   2.3208   2.4354   2.4499   2.5947   2.6769   2.7966   2.8771
     3.2139   3.4966   3.6029   3.7771   3.7998   4.3208   4.5045   4.9954
     5.9507   9.7067  10.8519  11.1616  11.4342  11.4420  12.4433  12.5160
    13.0391  14.0933

          k =-0.1875 0.1804-0.0592 (  5074 PWs)   bands (ev):

   -99.0222 -99.0053 -98.4602 -98.4294 -50.3682 -50.3552 -50.3120 -50.2937
   -50.2604 -50.2420 -49.8086 -49.7579 -49.7191 -49.7036 -49.7016 -49.6660
   -17.5264 -17.5149  -3.4407  -3.4332  -1.2702  -1.1648  -0.5845   0.0755
     0.1714   0.5088   0.9159   0.9389   0.9891   1.1093   1.5751   1.7870
     1.8316   2.1977   2.4152   2.5806   2.8264   2.9290   3.0592   3.1777
     3.2735   3.4867   3.6724   3.9960   4.0863   4.4381   4.8699   5.4771
     7.1983   9.0651   9.6472  10.6601  11.1251  11.1621  13.4295  13.4604
    13.8439  15.0197

          k = 0.2500 0.0722-0.0592 (  5074 PWs)   bands (ev):

   -99.0222 -99.0053 -98.4602 -98.4294 -50.3682 -50.3552 -50.3120 -50.2935
   -50.2604 -50.2422 -49.8086 -49.7579 -49.7191 -49.7036 -49.7016 -49.6659
   -17.5264 -17.5149  -3.4407  -3.4332  -1.2702  -1.1648  -0.5845   0.0756
     0.1716   0.5090   0.9165   0.9395   0.9881   1.1092   1.5750   1.7869
     1.8315   2.1977   2.4151   2.5806   2.8262   2.9292   3.0593   3.1782
     3.2734   3.4868   3.6725   3.9951   4.0859   4.4382   4.8699   5.4768
     7.1984   9.0659   9.6476  10.6591  11.1256  11.1619  13.4295  13.4603
    13.8439  15.0197

          k =-0.3125 0.2526-0.0592 (  5044 PWs)   bands (ev):

   -99.0192 -99.0023 -98.4572 -98.4265 -50.3732 -50.3597 -50.3549 -50.3466
   -50.2777 -50.2594 -49.8221 -49.8036 -49.7565 -49.7226 -49.7115 -49.6819
   -17.3558 -17.3443  -2.7976  -2.7950  -1.3049  -1.2930  -0.3507  -0.2998
     0.1826   0.4676   0.6628   0.7162   0.7956   0.9853   1.1602   1.6292
     2.2942   2.4301   2.6358   2.6851   2.8711   3.1541   3.5836   3.8244
     4.0149   4.2404   4.3840   4.6238   4.7617   5.0619   5.1940   6.3051
     7.6698   8.1336   9.1209  10.6999  10.7656  11.0477  13.5233  14.1634
    15.0404  15.3125

          k = 0.3750 0.1443-0.0592 (  5044 PWs)   bands (ev):

   -99.0192 -99.0023 -98.4572 -98.4265 -50.3732 -50.3597 -50.3548 -50.3466
   -50.2777 -50.2595 -49.8221 -49.8036 -49.7565 -49.7226 -49.7115 -49.6819
   -17.3558 -17.3443  -2.7976  -2.7950  -1.3048  -1.2930  -0.3507  -0.2996
     0.1827   0.4679   0.6630   0.7158   0.7955   0.9851   1.1603   1.6290
     2.2940   2.4301   2.6353   2.6851   2.8712   3.1536   3.5844   3.8236
     4.0162   4.2402   4.3842   4.6239   4.7612   5.0617   5.1939   6.3049
     7.6702   8.1343   9.1211  10.6992  10.7662  11.0473  13.5232  14.1631
    15.0403  15.3128

          k =-0.4375 0.3248-0.0592 (  5006 PWs)   bands (ev):

   -99.0176 -99.0006 -98.4555 -98.4249 -50.4076 -50.3892 -50.3549 -50.3419
   -50.2875 -50.2693 -49.8532 -49.8257 -49.7566 -49.7337 -49.7178 -49.6910
   -17.2558 -17.2443  -2.3608  -2.3577  -1.6829  -1.6719  -0.4804  -0.4405
     0.2524   0.3353   0.4990   0.5787   0.6572   0.8039   1.0217   1.8895
     2.3543   2.4293   2.6309   2.9148   3.2642   3.4665   3.8305   4.5974
     4.6777   4.7395   4.9318   5.1813   5.3004   5.5022   6.8014   6.9991
     7.4923   8.4019   9.8024  10.0786  10.5413  10.6158  11.3175  12.5159
    13.1381  14.3446

          k = 0.5000 0.2165-0.0592 (  5006 PWs)   bands (ev):

   -99.0176 -99.0006 -98.4555 -98.4249 -50.4076 -50.3892 -50.3549 -50.3419
   -50.2875 -50.2693 -49.8532 -49.8257 -49.7566 -49.7337 -49.7178 -49.6910
   -17.2558 -17.2443  -2.3608  -2.3576  -1.6829  -1.6719  -0.4804  -0.4404
     0.2525   0.3354   0.4990   0.5785   0.6572   0.8039   1.0217   1.8894
     2.3544   2.4294   2.6303   2.9153   3.2639   3.4662   3.8306   4.5977
     4.6782   4.7392   4.9317   5.1813   5.3002   5.5022   6.8013   6.9993
     7.4924   8.4019   9.8026  10.0790  10.5415  10.6147  11.3176  12.5158
    13.1379  14.3449

          k = 0.4375-0.1804-0.0592 (  5020 PWs)   bands (ev):

   -99.0182 -99.0012 -98.4561 -98.4255 -50.3955 -50.3771 -50.3566 -50.3435
   -50.2841 -50.2658 -49.8419 -49.8168 -49.7585 -49.7297 -49.7153 -49.6878
   -17.2912 -17.2797  -2.5347  -2.5332  -1.5164  -1.5054  -0.4357  -0.3946
     0.2640   0.3911   0.5570   0.6270   0.7033   0.8999   1.0299   1.7428
     2.3737   2.4508   2.6141   2.8811   3.1243   3.3019   3.7440   4.2959
     4.4313   4.5765   4.8536   4.9009   5.0315   5.3163   6.0206   6.7089
     7.4217   8.0435   9.6162  10.6000  10.6219  11.4741  11.6020  12.6172
    14.3760  15.9396

          k =-0.3750-0.2887-0.0592 (  5020 PWs)   bands (ev):

   -99.0182 -99.0012 -98.4561 -98.4255 -50.3955 -50.3771 -50.3566 -50.3435
   -50.2841 -50.2658 -49.8419 -49.8168 -49.7585 -49.7297 -49.7153 -49.6878
   -17.2912 -17.2797  -2.5347  -2.5332  -1.5164  -1.5055  -0.4357  -0.3947
     0.2638   0.3908   0.5569   0.6274   0.7032   0.8999   1.0300   1.7431
     2.3737   2.4507   2.6147   2.8807   3.1252   3.3018   3.7441   4.2959
     4.4300   4.5768   4.8535   4.9008   5.0321   5.3163   6.0207   6.7089
     7.4212   8.0433   9.6157  10.6005  10.6221  11.4740  11.6024  12.6174
    14.3761  15.9392

          k = 0.3125-0.1083-0.0592 (  5064 PWs)   bands (ev):

   -99.0207 -99.0038 -98.4587 -98.4279 -50.3638 -50.3507 -50.3438 -50.3254
   -50.2694 -50.2512 -49.8075 -49.7859 -49.7420 -49.7134 -49.7074 -49.6743
   -17.4387 -17.4272  -3.1094  -3.1053  -1.1688  -1.1485  -0.3431  -0.1426
     0.0362   0.5232   0.7934   0.8303   0.9164   1.0897   1.3878   1.6557
     2.0048   2.2212   2.4467   2.7335   2.7800   3.0655   3.3132   3.3985
     3.6288   3.7553   3.9842   4.3026   4.4139   4.6725   4.9484   5.8783
     7.6221   8.5667   9.1491  10.6426  10.9419  11.0077  14.0874  14.1573
    14.5111  15.6954

          k =-0.2500-0.2165-0.0592 (  5064 PWs)   bands (ev):

   -99.0207 -99.0038 -98.4587 -98.4279 -50.3638 -50.3507 -50.3439 -50.3255
   -50.2694 -50.2511 -49.8075 -49.7859 -49.7420 -49.7134 -49.7074 -49.6743
   -17.4387 -17.4272  -3.1094  -3.1053  -1.1688  -1.1485  -0.3430  -0.1427
     0.0360   0.5229   0.7930   0.8306   0.9167   1.0898   1.3878   1.6559
     2.0049   2.2214   2.4469   2.7334   2.7803   3.0658   3.3136   3.3969
     3.6288   3.7554   3.9841   4.3030   4.4144   4.6724   4.9486   5.8785
     7.6219   8.5658   9.1488  10.6435  10.9414  11.0079  14.0875  14.1573
    14.5111  15.6958

          k = 0.1875-0.0361-0.0592 (  5100 PWs)   bands (ev):

   -99.0236 -99.0067 -98.4617 -98.4308 -50.3723 -50.3593 -50.2824 -50.2639
   -50.2521 -50.2339 -49.8136 -49.7316 -49.7048 -49.6957 -49.6845 -49.6582
   -17.6058 -17.5944  -3.7529  -3.7368  -1.5835  -1.3120  -0.8182   0.1939
     0.3683   0.3943   0.9854   1.0307   1.0736   1.1050   1.8001   1.8872
     1.9730   2.2838   2.5328   2.6520   2.6782   2.7454   2.7764   2.9845
     3.0949   3.4335   3.5623   3.8276   3.8751   4.3688   4.7292   5.1536
     6.6021   9.4709  10.2753  10.8599  11.2973  11.3192  12.8807  12.8871
    13.3572  14.4741

          k =-0.1250-0.1443-0.0592 (  5100 PWs)   bands (ev):

   -99.0236 -99.0067 -98.4617 -98.4308 -50.3723 -50.3593 -50.2824 -50.2641
   -50.2521 -50.2337 -49.8136 -49.7316 -49.7048 -49.6957 -49.6845 -49.6582
   -17.6058 -17.5944  -3.7529  -3.7368  -1.5835  -1.3119  -0.8182   0.1939
     0.3680   0.3942   0.9843   1.0304   1.0750   1.1050   1.7999   1.8874
     1.9731   2.2839   2.5330   2.6516   2.6778   2.7452   2.7764   2.9849
     3.0948   3.4335   3.5620   3.8289   3.8752   4.3690   4.7289   5.1539
     6.6021   9.4703  10.2747  10.8609  11.2967  11.3194  12.8807  12.8871
    13.3572  14.4741

          k = 0.0000-0.0722-0.0592 (  5138 PWs)   bands (ev):

   -99.0253 -99.0084 -98.4634 -98.4324 -50.3772 -50.3643 -50.2473 -50.2423
   -50.2291 -50.2238 -49.8205 -49.7106 -49.6886 -49.6853 -49.6536 -49.6490
   -17.6976 -17.6862  -4.1324  -4.1002  -2.0500  -1.5748  -1.1388  -0.2711
     0.6157   0.6263   1.1575   1.1666   1.1768   1.1818   2.1405   2.1857
     2.2342   2.2938   2.3079   2.3551   2.6227   2.6736   2.6912   2.7429
     3.5669   3.5774   3.7282   3.7609   3.7822   4.2385   4.3634   4.9508
     5.4216   9.8036  11.2426  11.3915  11.5013  11.5093  12.1715  12.3306
    12.8807  13.8960

          k = 0.3750 0.0000-0.0592 (  5074 PWs)   bands (ev):

   -99.0197 -99.0028 -98.4577 -98.4270 -50.3610 -50.3543 -50.3479 -50.3358
   -50.2848 -50.2666 -49.8093 -49.7910 -49.7541 -49.7235 -49.7103 -49.6887
   -17.3827 -17.3712  -2.8922  -2.8886  -1.1444  -1.1355  -0.0144  -0.0024
     0.0810   0.3384   0.5641   0.7878   1.2145   1.3421   1.4216   1.5647
     1.7279   1.9017   2.2389   2.5326   2.7148   2.9015   3.1030   3.5729
     3.6989   3.8663   4.2916   4.6841   4.8623   4.9832   5.3036   6.4216
     7.8800   8.3935   9.2319  10.3275  10.3642  11.0351  14.6811  14.7004
    15.0298  15.6285

          k =-0.3125 0.3969-0.0592 (  5032 PWs)   bands (ev):

   -99.0176 -99.0006 -98.4555 -98.4249 -50.3859 -50.3676 -50.3549 -50.3417
   -50.3096 -50.2913 -49.8324 -49.8084 -49.7638 -49.7468 -49.7185 -49.7086
   -17.2570 -17.2455  -2.3812  -2.3792  -1.3396  -1.3301  -0.2321  -0.2125
     0.0936   0.1038   0.6840   0.8323   1.0390   1.2155   1.3603   1.6034
     1.9647   2.2388   2.3796   2.5586   2.7780   3.2084   3.4279   3.8916
     3.9510   4.2312   4.7453   5.1401   5.3513   5.4811   7.0867   7.4460
     7.6456   8.4214   9.5216   9.7129  10.4778  11.7130  12.4511  12.9657
    14.2253  15.3089

          k = 0.5000 0.0722-0.0592 (  5032 PWs)   bands (ev):

   -99.0176 -99.0006 -98.4555 -98.4249 -50.3859 -50.3674 -50.3549 -50.3417
   -50.3096 -50.2914 -49.8324 -49.8084 -49.7638 -49.7468 -49.7185 -49.7085
   -17.2570 -17.2455  -2.3810  -2.3792  -1.3394  -1.3301  -0.2318  -0.2126
     0.0943   0.1032   0.6839   0.8323   1.0392   1.2153   1.3603   1.6030
     1.9642   2.2387   2.3792   2.5584   2.7780   3.2081   3.4283   3.8915
     3.9507   4.2311   4.7455   5.1405   5.3512   5.4813   7.0863   7.4464
     7.6479   8.4213   9.5214   9.7130  10.4767  11.7129  12.4507  12.9652
    14.2249  15.3097

          k =-0.4375 0.4691-0.0592 (  5032 PWs)   bands (ev):

   -99.0171 -99.0001 -98.4550 -98.4245 -50.3929 -50.3744 -50.3534 -50.3403
   -50.3158 -50.2976 -49.8390 -49.8131 -49.7642 -49.7527 -49.7192 -49.7142
   -17.2270 -17.2155  -2.2321  -2.2314  -1.4251  -1.4154  -0.3091  -0.2914
     0.0424   0.0456   0.6670   0.8244   1.0054   1.2406   1.2888   1.7301
     1.8487   2.2480   2.4131   2.7984   2.9126   3.2399   3.5221   4.1732
     4.2143   4.3840   4.7736   5.0915   5.4476   5.5816   7.2883   7.3082
     8.3741   9.1345   9.3181   9.7443  10.2470  11.1746  11.9502  13.0488
    13.4159  14.3926

          k = 0.6250 0.1443-0.0592 (  5032 PWs)   bands (ev):

   -99.0171 -99.0001 -98.4550 -98.4245 -50.3929 -50.3745 -50.3534 -50.3403
   -50.3158 -50.2975 -49.8390 -49.8131 -49.7642 -49.7527 -49.7192 -49.7142
   -17.2270 -17.2155  -2.2322  -2.2314  -1.4251  -1.4154  -0.3092  -0.2913
     0.0427   0.0453   0.6671   0.8245   1.0052   1.2403   1.2892   1.7303
     1.8488   2.2478   2.4134   2.7987   2.9125   3.2399   3.5221   4.1728
     4.2144   4.3844   4.7735   5.0913   5.4477   5.5815   7.2883   7.3071
     8.3742   9.1344   9.3185   9.7443  10.2472  11.1748  11.9503  13.0492
    13.4159  14.3920

          k = 0.4375-0.0361-0.0592 (  5052 PWs)   bands (ev):

   -99.0185 -99.0016 -98.4564 -98.4258 -50.3726 -50.3575 -50.3541 -50.3444
   -50.2985 -50.2803 -49.8209 -49.8005 -49.7621 -49.7362 -49.7149 -49.7000
   -17.3120 -17.3005  -2.6158  -2.6128  -1.2311  -1.2222  -0.1105  -0.0909
     0.1818   0.2091   0.6112   0.7952   1.0894   1.2607   1.4656   1.5494
     1.8775   2.0931   2.3288   2.4720   2.5862   3.0888   3.3281   3.5997
     3.7404   4.0424   4.6342   4.9981   5.1365   5.2819   6.1421   7.1188
     7.8364   8.0998   9.5427   9.9822  10.0137  11.4880  13.7449  14.4562
    15.3219  15.5482

          k =-0.2500-0.3608-0.0592 (  5052 PWs)   bands (ev):

   -99.0185 -99.0016 -98.4564 -98.4258 -50.3726 -50.3575 -50.3544 -50.3444
   -50.2985 -50.2801 -49.8209 -49.8005 -49.7621 -49.7361 -49.7149 -49.7001
   -17.3120 -17.3005  -2.6160  -2.6129  -1.2313  -1.2222  -0.1109  -0.0912
     0.1817   0.2099   0.6112   0.7950   1.0896   1.2608   1.4654   1.5496
     1.8779   2.0932   2.3294   2.4721   2.5865   3.0888   3.3272   3.6001
     3.7416   4.0419   4.6339   4.9977   5.1371   5.2816   6.1426   7.1194
     7.8350   8.0979   9.5417   9.9814  10.0167  11.4882  13.7451  14.4575
    15.3219  15.5481

          k = 0.3125 0.0361-0.0592 (  5062 PWs)   bands (ev):

   -99.0210 -99.0041 -98.4590 -98.4282 -50.3647 -50.3517 -50.3332 -50.3147
   -50.2712 -50.2530 -49.8062 -49.7761 -49.7379 -49.7116 -49.7063 -49.6764
   -17.4580 -17.4465  -3.1782  -3.1739  -1.1371  -1.1105  -0.3129   0.0227
     0.0918   0.4857   0.7504   0.8425   1.0936   1.2632   1.4348   1.6561
     1.7448   1.9637   2.3030   2.6143   2.7793   2.9189   2.9822   3.4793
     3.5877   3.7280   3.8524   4.2543   4.5107   4.7164   4.8051   5.8917
     7.6050   8.7415   9.3331  10.5827  10.7793  10.9590  13.9749  14.0265
    14.3469  15.5493

          k =-0.1250-0.2887-0.0592 (  5062 PWs)   bands (ev):

   -99.0210 -99.0041 -98.4590 -98.4282 -50.3647 -50.3517 -50.3333 -50.3151
   -50.2712 -50.2527 -49.8062 -49.7761 -49.7379 -49.7116 -49.7063 -49.6764
   -17.4580 -17.4465  -3.1782  -3.1740  -1.1371  -1.1105  -0.3127   0.0229
     0.0911   0.4849   0.7505   0.8423   1.0934   1.2629   1.4350   1.6563
     1.7446   1.9636   2.3029   2.6146   2.7797   2.9188   2.9826   3.4788
     3.5879   3.7285   3.8526   4.2548   4.5116   4.7163   4.8054   5.8925
     7.6048   8.7392   9.3325  10.5852  10.7784  10.9586  13.9749  14.0265
    14.3468  15.5494

          k = 0.0000-0.2165-0.0592 (  5092 PWs)   bands (ev):

   -99.0231 -99.0062 -98.4612 -98.4303 -50.3709 -50.3579 -50.2938 -50.2756
   -50.2540 -50.2355 -49.8117 -49.7417 -49.7073 -49.6975 -49.6943 -49.6599
   -17.5781 -17.5666  -3.6428  -3.6303  -1.4618  -1.2528  -0.7406   0.1705
     0.2812   0.4015   0.9746   1.0343   1.0419   1.0628   1.6897   1.8960
     1.9221   2.3047   2.4819   2.6694   2.7467   2.8402   2.8593   3.0152
     3.1779   3.4396   3.4548   3.8669   4.0033   4.2814   4.9874   5.1293
     6.8271   9.3237  10.0032  10.7587  11.2948  11.3022  13.0607  13.0739
    13.5163  14.6578

          k = 0.6250 0.0000-0.0592 (  5044 PWs)   bands (ev):

   -99.0166 -98.9997 -98.4545 -98.4240 -50.3707 -50.3522 -50.3521 -50.3501
   -50.3390 -50.3319 -49.8182 -49.8005 -49.7945 -49.7583 -49.7321 -49.7205
   -17.2006 -17.1890  -2.1150  -2.1128  -1.0430  -1.0334  -0.6919  -0.6803
    -0.0360  -0.0123   1.0372   1.0758   1.3077   1.4319   1.4445   1.7461
     1.9166   2.1479   2.1957   2.3897   2.4927   3.5033   3.5910   3.8032
     3.9164   4.2904   4.7626   4.9656   5.5330   5.6720   7.4066   7.4184
     8.4346   8.6030   9.6238  10.6162  10.8939  11.1458  12.5509  12.7346
    13.6978  14.5319

          k =-0.4375 0.6134-0.0592 (  5050 PWs)   bands (ev):

   -99.0170 -99.0000 -98.4548 -98.4243 -50.3815 -50.3630 -50.3531 -50.3399
   -50.3305 -50.3123 -49.8280 -49.8046 -49.7792 -49.7515 -49.7280 -49.7168
   -17.2205 -17.2089  -2.2103  -2.2085  -1.2376  -1.2285  -0.3774  -0.3648
    -0.0525  -0.0303   0.8903   0.9840   1.1958   1.4004   1.5294   1.6407
     1.8319   2.1121   2.2674   2.4520   2.6744   3.3162   3.4840   3.8593
     3.9572   4.2217   4.7636   5.1278   5.4951   5.5846   7.4650   7.4744
     8.2618   8.7691   9.0660   9.8798  10.9865  11.6427  12.1502  13.2249
    13.6675  14.4187

          k = 0.7500 0.0722-0.0592 (  5050 PWs)   bands (ev):

   -99.0170 -99.0000 -98.4548 -98.4243 -50.3815 -50.3634 -50.3531 -50.3399
   -50.3304 -50.3119 -49.8281 -49.8046 -49.7792 -49.7514 -49.7280 -49.7169
   -17.2205 -17.2089  -2.2106  -2.2085  -1.2379  -1.2287  -0.3769  -0.3650
    -0.0518  -0.0313   0.8906   0.9839   1.1960   1.4009   1.5296   1.6407
     1.8322   2.1116   2.2673   2.4522   2.6744   3.3162   3.4840   3.8600
     3.9579   4.2225   4.7630   5.1271   5.4949   5.5850   7.4636   7.4724
     8.2621   8.7690   9.0677   9.8800  10.9866  11.6428  12.1511  13.2255
    13.6674  14.4188

          k = 0.4375 0.1083-0.0592 (  5038 PWs)   bands (ev):

   -99.0184 -99.0015 -98.4563 -98.4257 -50.3829 -50.3644 -50.3572 -50.3441
   -50.2912 -50.2730 -49.8301 -49.8078 -49.7590 -49.7352 -49.7137 -49.6942
   -17.3046 -17.2931  -2.5890  -2.5872  -1.3532  -1.3430  -0.2898  -0.2572
     0.3270   0.3837   0.5092   0.6642   0.8945   1.0565   1.1814   1.6168
     2.1772   2.3719   2.5279   2.6571   2.7610   3.2279   3.4668   3.8489
     3.9908   4.3640   4.5835   4.9212   5.0805   5.3108   6.0805   6.9368
     7.6537   8.0578   9.5259  10.2557  10.3084  11.5113  12.6105  13.5993
    15.1979  15.7476

          k =-0.1250-0.4330-0.0592 (  5038 PWs)   bands (ev):

   -99.0184 -99.0015 -98.4563 -98.4257 -50.3829 -50.3648 -50.3572 -50.3441
   -50.2912 -50.2726 -49.8301 -49.8078 -49.7590 -49.7351 -49.7137 -49.6942
   -17.3046 -17.2931  -2.5891  -2.5872  -1.3535  -1.3431  -0.2901  -0.2565
     0.3269   0.3838   0.5091   0.6646   0.8940   1.0564   1.1805   1.6163
     2.1777   2.3719   2.5285   2.6566   2.7618   3.2283   3.4669   3.8504
     3.9908   4.3641   4.5836   4.9197   5.0817   5.3109   6.0812   6.9386
     7.6534   8.0537   9.5263  10.2563  10.3085  11.5114  12.6110  13.5997
    15.1981  15.7473

          k = 0.0000-0.3608-0.0592 (  5056 PWs)   bands (ev):

   -99.0201 -99.0031 -98.4580 -98.4273 -50.3622 -50.3589 -50.3490 -50.3408
   -50.2706 -50.2520 -49.8125 -49.7968 -49.7502 -49.7148 -49.7102 -49.6752
   -17.4029 -17.3914  -2.9779  -2.9745  -1.2311  -1.2160  -0.3678  -0.2687
     0.0459   0.4814   0.7827   0.8173   0.8261   0.9700   1.2479   1.6443
     2.2409   2.4357   2.5484   2.7429   2.9442   3.0528   3.6127   3.6750
     3.8243   3.9795   4.0313   4.4482   4.4861   4.6839   5.0217   5.9711
     7.6537   8.3270   9.0193  10.7415  10.9907  10.9993  14.1753  14.5097
    14.6323  14.8816

          k = 0.8750 0.0000-0.0592 (  5006 PWs)   bands (ev):

   -99.0173 -99.0004 -98.4552 -98.4247 -50.4033 -50.3851 -50.3541 -50.3410
   -50.2995 -50.2810 -49.8490 -49.8216 -49.7547 -49.7471 -49.7175 -49.7018
   -17.2393 -17.2278  -2.2811  -2.2794  -1.6049  -1.5943  -0.3949  -0.3600
     0.2726   0.2890   0.4411   0.5739   0.8002   0.9745   1.1063   1.8783
     2.0788   2.3200   2.5945   2.8813   3.1701   3.3571   3.6980   4.3951
     4.4838   4.6272   4.9196   5.0506   5.3790   5.5667   7.0888   7.1524
     8.2297   8.8502   9.6410   9.7272  10.2754  10.5197  11.6809  12.6348
    13.5695  13.8660

          k = 0.0000-0.5052-0.0592 (  4992 PWs)   bands (ev):

   -99.0179 -99.0010 -98.4558 -98.4252 -50.4048 -50.3866 -50.3558 -50.3427
   -50.2822 -50.2637 -49.8506 -49.8237 -49.7580 -49.7270 -49.7179 -49.6861
   -17.2740 -17.2624  -2.4544  -2.4515  -1.6441  -1.6322  -0.5014  -0.4576
     0.2010   0.3064   0.5538   0.6651   0.6742   0.7719   0.9938   1.8339
     2.4306   2.5791   2.5791   2.9425   3.1597   3.5861   3.8078   4.6222
     4.6591   4.7068   4.9054   5.1348   5.2699   5.3779   6.2697   6.6885
     7.2711   8.1185   9.8321  10.5471  10.7416  10.7582  11.5168  12.1551
    13.5538  15.1842

     the Fermi energy is     7.3431 ev

!    total energy              =   -1218.75966004 Ry
     Harris-Foulkes estimate   =   -1218.75966036 Ry
     estimated scf accuracy    <       0.00000033 Ry

     The total energy is the sum of the following terms:

     one-electron contribution =   -8535.29968395 Ry
     hartree contribution      =    4276.68371410 Ry
     xc contribution           =    -125.38433523 Ry
     ewald contribution        =    3196.66483214 Ry
     one-center paw contrib.   =     -31.42209451 Ry
     smearing contrib. (-TS)   =      -0.00209259 Ry

     convergence has been achieved in  15 iterations

     Forces acting on atoms (Ry/au):


     negative rho (up, down):  2.949E-04 0.000E+00
     atom    1 type  3   force =     0.00000000   -0.00015749   -0.13879871
     atom    2 type  2   force =     0.00000000    0.00031251    0.14034720
     atom    3 type  1   force =     0.00000000   -0.00013403   -0.01723340
     atom    4 type  1   force =     0.00000000   -0.00000946   -0.00413910
     atom    5 type  1   force =     0.00000000    0.00000301    0.00049969
     atom    6 type  1   force =     0.00000000    0.00004939    0.01950252
     atom    7 type  2   force =     0.00000000   -0.00019427   -0.13904004
     atom    8 type  3   force =     0.00000000    0.00013033    0.13886184

     Total force =     0.279771     Total SCF correction =     0.004769

     BFGS Geometry Optimization

     number of scf cycles    =   1
     number of bfgs steps    =   0

     energy   new            =   -1218.7596600438 Ry

     new trust radius        =       0.1403475527 bohr
     new conv_thr            =       0.0000010000 Ry


ATOMIC_POSITIONS (alat)
O        0.500001000   0.288646097  -1.040825328
C        0.500000000   0.289732352  -0.598487493
Au       0.000000000  -0.000024597  -0.003162672
Au       0.500000000   0.288673264   0.815737393
Au       0.000000000   0.577350553   1.633084704
Au       0.000000000   0.000009064   2.453069100
C        0.500000000   0.288639348   3.048217384
O        0.500001000   0.289698918   3.490326913



     Writing output data file CO_Au_hollow.save
     Check: negative starting charge=   -0.000200
     NEW-OLD atomic charge density approx. for the potential

     Check: negative/imaginary core charge=   -0.000004    0.000000
     Check: negative starting charge=   -0.000183

     negative rho (up, down):  1.909E-04 0.000E+00

     total cpu time spent up to now is     1104.9 secs

     per-process dynamical memory:   425.9 Mb

     Self-consistent Calculation

     iteration #  1     ecut=    40.00 Ry     beta=0.70
     Davidson diagonalization with overlap
     ethr =  1.00E-06,  avg # of iterations =  6.6

     negative rho (up, down):  2.083E-04 0.000E+00

     total cpu time spent up to now is     1257.2 secs

     total energy              =   -1218.48021121 Ry
     Harris-Foulkes estimate   =   -1218.66036252 Ry
     estimated scf accuracy    <       0.28543230 Ry

     iteration #  2     ecut=    40.00 Ry     beta=0.70
     Davidson diagonalization with overlap
     ethr =  2.97E-04,  avg # of iterations =  5.5

     negative rho (up, down):  5.380E-04 0.000E+00

     total cpu time spent up to now is     1348.1 secs

     total energy              =   -1215.64538326 Ry
     Harris-Foulkes estimate   =   -1220.87549861 Ry
     estimated scf accuracy    <      69.74061354 Ry

     iteration #  3     ecut=    40.00 Ry     beta=0.70
     Davidson diagonalization with overlap
     ethr =  2.97E-04,  avg # of iterations =  6.1

     negative rho (up, down):  2.481E-04 0.000E+00

     total cpu time spent up to now is     1447.0 secs

     total energy              =   -1218.60156240 Ry
     Harris-Foulkes estimate   =   -1218.73427606 Ry
     estimated scf accuracy    <       1.25781108 Ry

     iteration #  4     ecut=    40.00 Ry     beta=0.70
     Davidson diagonalization with overlap
     ethr =  2.97E-04,  avg # of iterations =  4.0

     negative rho (up, down):  2.341E-04 0.000E+00

     total cpu time spent up to now is     1510.3 secs

     total energy              =   -1218.60048503 Ry
     Harris-Foulkes estimate   =   -1218.79356009 Ry
     estimated scf accuracy    <       3.82893801 Ry

     iteration #  5     ecut=    40.00 Ry     beta=0.70
     Davidson diagonalization with overlap
     ethr =  2.97E-04,  avg # of iterations =  3.5

     negative rho (up, down):  2.261E-04 0.000E+00

     total cpu time spent up to now is     1574.0 secs

     total energy              =   -1218.68045300 Ry
     Harris-Foulkes estimate   =   -1218.71482311 Ry
     estimated scf accuracy    <       0.19517638 Ry

     iteration #  6     ecut=    40.00 Ry     beta=0.70
     Davidson diagonalization with overlap
     ethr =  2.03E-04,  avg # of iterations =  1.8

     negative rho (up, down):  2.222E-04 0.000E+00

     total cpu time spent up to now is     1628.2 secs

     total energy              =   -1218.69464947 Ry
     Harris-Foulkes estimate   =   -1218.69593246 Ry
     estimated scf accuracy    <       0.02032447 Ry

     iteration #  7     ecut=    40.00 Ry     beta=0.70
     Davidson diagonalization with overlap
     ethr =  2.12E-05,  avg # of iterations =  2.8

     negative rho (up, down):  2.196E-04 0.000E+00

     total cpu time spent up to now is     1683.8 secs

     total energy              =   -1218.69506992 Ry
     Harris-Foulkes estimate   =   -1218.69585981 Ry
     estimated scf accuracy    <       0.00259710 Ry

     iteration #  8     ecut=    40.00 Ry     beta=0.70
     Davidson diagonalization with overlap
     ethr =  2.71E-06,  avg # of iterations =  3.9

     negative rho (up, down):  2.184E-04 0.000E+00

     total cpu time spent up to now is     1745.5 secs

     total energy              =   -1218.69526650 Ry
     Harris-Foulkes estimate   =   -1218.69577529 Ry
     estimated scf accuracy    <       0.00264031 Ry

     iteration #  9     ecut=    40.00 Ry     beta=0.70
     Davidson diagonalization with overlap
     ethr =  2.71E-06,  avg # of iterations =  3.1

     negative rho (up, down):  2.186E-04 0.000E+00

     total cpu time spent up to now is     1801.1 secs

     total energy              =   -1218.69549936 Ry
     Harris-Foulkes estimate   =   -1218.69555957 Ry
     estimated scf accuracy    <       0.00083855 Ry

     iteration # 10     ecut=    40.00 Ry     beta=0.70
     Davidson diagonalization with overlap
     ethr =  8.73E-07,  avg # of iterations =  1.0

     negative rho (up, down):  2.185E-04 0.000E+00

     total cpu time spent up to now is     1850.2 secs

     total energy              =   -1218.69552728 Ry
     Harris-Foulkes estimate   =   -1218.69553466 Ry
     estimated scf accuracy    <       0.00003881 Ry

     iteration # 11     ecut=    40.00 Ry     beta=0.70
     Davidson diagonalization with overlap
     ethr =  4.04E-08,  avg # of iterations =  2.0

     negative rho (up, down):  2.185E-04 0.000E+00

     total cpu time spent up to now is     1908.6 secs

     total energy              =   -1218.69552847 Ry
     Harris-Foulkes estimate   =   -1218.69553442 Ry
     estimated scf accuracy    <       0.00001546 Ry

     iteration # 12     ecut=    40.00 Ry     beta=0.70
     Davidson diagonalization with overlap
     ethr =  1.61E-08,  avg # of iterations =  2.0

     negative rho (up, down):  2.186E-04 0.000E+00

     total cpu time spent up to now is     1965.4 secs

     total energy              =   -1218.69553065 Ry
     Harris-Foulkes estimate   =   -1218.69553290 Ry
     estimated scf accuracy    <       0.00001259 Ry

     iteration # 13     ecut=    40.00 Ry     beta=0.70
     Davidson diagonalization with overlap
     ethr =  1.31E-08,  avg # of iterations =  1.0

     negative rho (up, down):  2.185E-04 0.000E+00

     total cpu time spent up to now is     2014.9 secs

     total energy              =   -1218.69553158 Ry
     Harris-Foulkes estimate   =   -1218.69553218 Ry
     estimated scf accuracy    <       0.00000625 Ry

     iteration # 14     ecut=    40.00 Ry     beta=0.70
     Davidson diagonalization with overlap
     ethr =  6.51E-09,  avg # of iterations =  1.0

     negative rho (up, down):  2.186E-04 0.000E+00

     total cpu time spent up to now is     2064.8 secs

     total energy              =   -1218.69553186 Ry
     Harris-Foulkes estimate   =   -1218.69553200 Ry
     estimated scf accuracy    <       0.00000247 Ry

     iteration # 15     ecut=    40.00 Ry     beta=0.70
     Davidson diagonalization with overlap
     ethr =  2.58E-09,  avg # of iterations =  1.0

     negative rho (up, down):  2.186E-04 0.000E+00

     total cpu time spent up to now is     2123.1 secs

     End of self-consistent calculation

          k = 0.0625 0.1083-0.0592 (  5130 PWs)   bands (ev):

   -99.9190 -99.8922 -99.3140 -99.2924 -51.2724 -51.2514 -51.1465 -51.1325
   -51.1181 -51.1038 -50.6716 -50.5702 -50.5482 -50.5397 -50.5238 -50.5110
   -15.3250 -15.3239  -4.8668  -4.8379  -2.5127  -1.5155  -1.1408  -0.8555
     0.5419   0.6297   0.9377   1.0240   1.2267   1.3865   1.4223   1.4410
     1.6741   1.7949   1.8996   1.9832   2.2929   2.3938   2.4602   2.5693
     2.6556   3.0527   3.0843   3.2214   3.2367   3.5357   3.7459   4.1535
     5.1903   9.1132   9.7746  10.0614  10.2374  10.2477  12.0098  13.0841
    13.5588  14.3548

          k = 0.0625 0.2526-0.0592 (  5074 PWs)   bands (ev):

   -99.9165 -99.8897 -99.3114 -99.2900 -51.2652 -51.2441 -51.1987 -51.1706
   -51.1472 -51.1183 -50.6620 -50.6095 -50.5763 -50.5593 -50.5533 -50.5247
   -15.1556 -15.1546  -4.2497  -4.2407  -1.6839  -0.9817  -0.5924  -0.2295
     0.2201   0.3485   0.6020   0.6928   0.8470   1.1095   1.3544   1.5402
     1.6844   1.7519   1.8829   1.9903   2.1250   2.2958   2.4353   2.7156
     2.8246   2.8834   3.1013   3.2982   3.3706   3.6755   4.0417   4.7614
     6.5599   8.2970   8.6387   9.8003   9.9619  10.0171  12.8692  14.0167
    14.4148  15.3847

          k = 0.0625 0.3969-0.0592 (  5044 PWs)   bands (ev):

   -99.9135 -99.8867 -99.3083 -99.2872 -51.2600 -51.2566 -51.2357 -51.2316
   -51.1645 -51.1356 -50.6734 -50.6589 -50.6125 -50.5743 -50.5668 -50.5404
   -14.9461 -14.9452  -3.5240  -3.5173  -1.0194  -0.8465  -0.4932  -0.3261
    -0.2312  -0.0051   0.1580   0.5792   0.7296   1.0708   1.3910   1.4830
     1.5944   1.7807   1.8731   2.3048   2.3496   2.7261   2.9812   3.1188
     3.3007   3.4490   3.5429   3.8477   3.9893   4.2221   4.3559   5.6394
     6.9696   7.3260   8.3314   9.6095   9.6229  10.2731  12.7273  13.4144
    14.7836  15.5706

          k = 0.0625 0.5413-0.0592 (  5006 PWs)   bands (ev):

   -99.9119 -99.8851 -99.3065 -99.2856 -51.2943 -51.2662 -51.2520 -51.2308
   -51.1743 -51.1454 -50.7041 -50.6832 -50.6102 -50.5856 -50.5735 -50.5493
   -14.8222 -14.8214  -3.0856  -3.0674  -1.2003  -1.1243  -0.5401  -0.5056
    -0.4024  -0.1700  -0.1083   0.3732   0.5462   1.1381   1.2828   1.4697
     1.7315   1.8436   2.3167   2.4624   2.7539   2.8494   3.1658   3.8025
     3.8563   3.9167   4.1212   4.3687   4.5130   4.7339   5.9563   6.1191
     6.6335   7.6047   9.0608   9.2640   9.4445   9.6800  10.6067  11.7686
    12.3806  13.5921

          k = 0.0625-0.4691-0.0592 (  5020 PWs)   bands (ev):

   -99.9125 -99.8857 -99.3072 -99.2861 -51.2822 -51.2541 -51.2537 -51.2325
   -51.1709 -51.1420 -50.6928 -50.6738 -50.6129 -50.5814 -50.5708 -50.5462
   -14.8662 -14.8653  -3.2453  -3.2327  -1.0978  -0.9918  -0.5299  -0.4298
    -0.3460  -0.1150  -0.0154   0.4458   0.6076   1.1273   1.3273   1.4581
     1.7228   1.7695   2.3047   2.3478   2.5275   2.8082   3.1065   3.4961
     3.6601   3.7715   4.0019   4.0809   4.2677   4.4888   5.1962   5.9665
     6.6091   7.2760   8.9251   9.4749   9.4954  10.6893  10.9009  11.8373
    13.6512  15.3672

          k = 0.0625-0.3248-0.0592 (  5064 PWs)   bands (ev):

   -99.9150 -99.8882 -99.3098 -99.2885 -51.2608 -51.2397 -51.2306 -51.2025
   -51.1562 -51.1273 -50.6605 -50.6380 -50.5996 -50.5660 -50.5617 -50.5329
   -15.0481 -15.0472  -3.8743  -3.8698  -1.2339  -0.8118  -0.4670  -0.2146
    -0.0294   0.1655   0.3892   0.7095   0.8416   1.0008   1.3378   1.3849
     1.5877   1.7004   1.8888   2.0016   2.3201   2.5536   2.7197   2.8150
     3.0300   3.1170   3.1951   3.5165   3.7129   3.8404   4.1115   5.1999
     7.0290   7.7633   8.1889   9.7430   9.7905   9.9950  13.4383  14.7316
    14.8872  15.1157

          k = 0.0625-0.1804-0.0592 (  5100 PWs)   bands (ev):

   -99.9179 -99.8911 -99.3128 -99.2913 -51.2693 -51.2483 -51.1692 -51.1410
   -51.1389 -51.1100 -50.6670 -50.5841 -50.5588 -50.5485 -50.5413 -50.5170
   -15.2524 -15.2514  -4.5983  -4.5794  -2.1521  -1.2655  -0.8733  -0.5302
     0.4304   0.5160   0.7572   0.8194   0.9999   1.3088   1.5404   1.6173
     1.6750   1.7639   1.8644   1.9960   2.0973   2.2433   2.4010   2.4849
     2.6703   2.9361   3.0902   3.2178   3.2488   3.5994   3.9377   4.3727
     5.8961   8.7839   9.2362   9.8894  10.1180  10.1418  12.3754  13.4617
    13.9050  14.7966

          k = 0.0625-0.0361-0.0592 (  5138 PWs)   bands (ev):

   -99.9196 -99.8928 -99.3146 -99.2929 -51.2741 -51.2531 -51.1341 -51.1291
   -51.1054 -51.1008 -50.6741 -50.5662 -50.5395 -50.5359 -50.5125 -50.5078
   -15.3637 -15.3626  -5.0127  -4.9775  -2.7055  -1.6552  -1.2897  -1.0409
     0.5926   0.6673   1.0861   1.1482   1.2467   1.2894   1.4066   1.4781
     1.7399   1.8039   1.8139   1.8718   2.4476   2.4784   2.6261   2.6481
     2.9206   3.1032   3.1287   3.2365   3.2409   3.4501   3.5913   4.0974
     4.6224   9.2568  10.1169  10.2190  10.2971  10.3053  11.8006  12.8921
    13.3814  14.1123

          k = 0.1875 0.3248-0.0592 (  5074 PWs)   bands (ev):

   -99.9140 -99.8872 -99.3088 -99.2876 -51.2580 -51.2410 -51.2369 -51.2128
   -51.1716 -51.1428 -50.6617 -50.6439 -50.6108 -50.5750 -50.5663 -50.5473
   -14.9794 -14.9785  -3.6231  -3.6205  -0.8113  -0.5211  -0.2437  -0.1282
     0.0203   0.1471   0.4198   0.5353   0.7268   0.8813   1.0186   1.2003
     1.4213   1.4626   1.5959   2.0936   2.3059   2.4317   2.5809   2.8125
     3.0599   3.1871   3.4996   3.8315   4.1155   4.1850   4.4727   5.7544
     7.2825   7.5546   8.2735   9.2751   9.2854  10.2420  13.9991  14.7997
    15.1812  15.2843

          k = 0.1875 0.4691-0.0592 (  5032 PWs)   bands (ev):

   -99.9119 -99.8851 -99.3065 -99.2856 -51.2726 -51.2519 -51.2445 -51.2307
   -51.1963 -51.1675 -50.6833 -50.6651 -50.6172 -50.5992 -50.5758 -50.5659
   -14.8240 -14.8232  -3.0562  -3.0471  -0.6493  -0.5990  -0.2733  -0.2026
    -0.0381   0.0588   0.2192   0.4880   0.6735   0.8503   0.9560   1.2169
     1.2721   1.7125   1.9022   2.0524   2.1933   2.5206   2.7322   3.1458
     3.2333   3.4726   3.9362   4.3381   4.6940   4.7810   6.2719   6.6224
     6.7878   7.6064   8.5024   8.7061   9.7102  10.9202  11.6856  12.2058
    13.4648  14.5509

          k = 0.1875 0.6134-0.0592 (  5032 PWs)   bands (ev):

   -99.9114 -99.8846 -99.3060 -99.2851 -51.2795 -51.2515 -51.2505 -51.2293
   -51.2025 -51.1737 -50.6899 -50.6702 -50.6162 -50.6063 -50.5762 -50.5715
   -14.7868 -14.7860  -2.9095  -2.8967  -0.7616  -0.7234  -0.2925  -0.2174
    -0.0048   0.0548   0.2139   0.4982   0.6118   0.7710   0.8811   1.1871
     1.2875   1.8389   2.0440   2.1124   2.2062   2.5985   2.7836   3.4050
     3.5009   3.5588   3.9552   4.2712   4.8777   4.9910   6.3669   6.3853
     7.5378   8.1903   8.3340   8.8753   9.4175  10.4400  11.2142  12.2880
    12.6710  13.6403

          k = 0.1875-0.3969-0.0592 (  5052 PWs)   bands (ev):

   -99.9128 -99.8860 -99.3075 -99.2865 -51.2593 -51.2545 -51.2335 -51.2309
   -51.1852 -51.1565 -50.6721 -50.6560 -50.6171 -50.5878 -50.5717 -50.5580
   -14.8921 -14.8912  -3.3100  -3.3049  -0.5444  -0.4704  -0.2595  -0.1729
    -0.0779   0.0268   0.2875   0.5542   0.7513   0.8585   1.0487   1.2086
     1.3393   1.4144   1.7199   2.0080   2.2719   2.4536   2.6955   2.8328
     3.0672   3.3498   3.8290   4.1818   4.4148   4.4776   5.3275   6.4604
     7.0872   7.2098   8.6299   8.9369   9.0755  10.7294  12.9346  13.6674
    14.5647  14.9234

          k = 0.1875-0.2526-0.0592 (  5062 PWs)   bands (ev):

   -99.9153 -99.8885 -99.3101 -99.2888 -51.2617 -51.2407 -51.2200 -51.1916
   -51.1580 -51.1294 -50.6594 -50.6276 -50.5955 -50.5645 -50.5607 -50.5352
   -15.0719 -15.0709  -3.9511  -3.9474  -1.2648  -0.7342  -0.3694  -0.1126
     0.1651   0.2846   0.4826   0.5154   0.8112   0.8821   1.1630   1.2963
     1.5337   1.6233   1.7591   2.0894   2.2873   2.3694   2.6298   2.7298
     2.9971   3.0614   3.1622   3.4508   3.7709   3.8895   4.0039   5.1990
     7.0270   7.9378   8.3225   9.6133   9.6531  10.0113  13.3782  14.5631
    14.9215  15.8307

          k = 0.1875-0.1083-0.0592 (  5092 PWs)   bands (ev):

   -99.9174 -99.8906 -99.3123 -99.2909 -51.2679 -51.2468 -51.1805 -51.1518
   -51.1409 -51.1125 -50.6651 -50.5937 -50.5625 -50.5525 -50.5484 -50.5185
   -15.2187 -15.2177  -4.4763  -4.4614  -1.9912  -1.1686  -0.7778  -0.4176
     0.3306   0.4369   0.7417   0.8002   0.9302   1.2521   1.4939   1.6777
     1.7727   1.7796   1.8275   1.9923   2.0660   2.1559   2.4097   2.5045
     2.7250   2.8898   3.0533   3.2423   3.3915   3.4838   4.1344   4.4149
     6.1426   8.6001   8.9829   9.8507  10.1121  10.1197  12.5325  13.6475
    14.0742  14.9961

          k = 0.3125 0.5413-0.0592 (  5044 PWs)   bands (ev):

   -99.9109 -99.8841 -99.3056 -99.2847 -51.2574 -51.2492 -51.2368 -51.2293
   -51.2279 -51.2081 -50.6692 -50.6551 -50.6475 -50.6157 -50.5869 -50.5777
   -14.7540 -14.7533  -2.7522  -2.7412  -0.3405  -0.3114  -0.0582  -0.0425
     0.0606   0.0712   0.2305   0.4939   0.5889   0.7295   0.7805   1.2211
     1.2635   1.4932   1.5908   1.9208   2.0045   2.6758   2.7932   2.9955
     3.2136   3.5300   3.9482   4.1229   5.1061   5.2121   6.4482   6.4575
     7.4714   7.6373   8.7865   9.7900  10.0520  10.3321  11.7852  11.9541
    12.9675  13.7993

          k = 0.3125 0.6856-0.0592 (  5050 PWs)   bands (ev):

   -99.9113 -99.8845 -99.3059 -99.2850 -51.2682 -51.2502 -51.2398 -51.2290
   -51.2171 -51.1886 -50.6790 -50.6611 -50.6312 -50.6061 -50.5854 -50.5733
   -14.7787 -14.7779  -2.8636  -2.8533  -0.4606  -0.4446  -0.1768  -0.0743
     0.0310   0.1176   0.2003   0.5179   0.7039   0.7484   0.9252   1.0141
     1.2453   1.5599   1.7456   1.9948   2.1080   2.5159   2.7329   3.0911
     3.1982   3.4977   3.9460   4.3030   4.9590   5.0379   6.5582   6.5664
     7.4020   7.7958   8.0989   9.0736  10.1425  10.8639  11.3729  12.4830
    12.9171  13.6499

          k = 0.3125-0.3248-0.0592 (  5038 PWs)   bands (ev):

   -99.9127 -99.8859 -99.3074 -99.2863 -51.2696 -51.2542 -51.2410 -51.2331
   -51.1780 -51.1495 -50.6810 -50.6641 -50.6140 -50.5868 -50.5695 -50.5526
   -14.8829 -14.8821  -3.2893  -3.2815  -0.8474  -0.7396  -0.3805  -0.2907
    -0.1626  -0.0328   0.1815   0.5046   0.6594   0.9640   1.1637   1.3566
     1.4655   1.8220   1.9116   2.1456   2.3134   2.6627   2.8173   3.1695
     3.2495   3.5644   3.7809   4.1057   4.3433   4.4980   5.2608   6.2286
     6.8707   7.2409   8.7467   9.1813   9.2542  10.7641  11.8148  12.8250
    14.5046  15.2960

          k = 0.3125-0.1804-0.0592 (  5056 PWs)   bands (ev):

   -99.9144 -99.8876 -99.3091 -99.2879 -51.2591 -51.2457 -51.2379 -51.2170
   -51.1574 -51.1290 -50.6647 -50.6504 -50.6073 -50.5660 -50.5659 -50.5337
   -15.0041 -15.0032  -3.7272  -3.7217  -1.1530  -0.8704  -0.5347  -0.2999
    -0.1664   0.0580   0.2423   0.6685   0.8214   1.1110   1.4682   1.5955
     1.6873   1.6985   1.7071   2.2838   2.3281   2.6743   2.9662   3.0628
     3.1564   3.2349   3.2657   3.6186   3.7858   3.8351   4.1696   5.3030
     7.0204   7.5322   8.1377   9.8275   9.8366  10.0062  13.5037  13.8390
    15.0313  15.2461

          k = 0.4375 0.7578-0.0592 (  5006 PWs)   bands (ev):

   -99.9116 -99.8848 -99.3062 -99.2853 -51.2899 -51.2613 -51.2512 -51.2300
   -51.1863 -51.1579 -50.6999 -50.6791 -50.6083 -50.5990 -50.5734 -50.5600
   -14.8019 -14.8011  -2.9899  -2.9732  -1.0372  -0.9776  -0.4315  -0.3983
    -0.2104  -0.0914   0.0263   0.4532   0.5360   0.9819   1.0427   1.4158
     1.4860   1.8624   2.2302   2.3245   2.4532   2.8278   2.9738   3.6256
     3.7206   3.7826   4.1064   4.2265   4.7170   4.8982   6.1780   6.2333
     7.3887   8.0074   8.7581   8.7648   9.3714   9.7369  11.0036  11.8684
    12.7787  13.1406

          k = 0.4375-0.2526-0.0592 (  4992 PWs)   bands (ev):

   -99.9122 -99.8854 -99.3069 -99.2859 -51.2914 -51.2628 -51.2529 -51.2317
   -51.1690 -51.1407 -50.7015 -50.6811 -50.6119 -50.5782 -50.5742 -50.5444
   -14.8447 -14.8439  -3.1756  -3.1589  -1.2211  -1.1291  -0.5909  -0.5084
    -0.4459  -0.1863  -0.1117   0.3790   0.5703   1.1996   1.3891   1.5105
     1.7223   1.8878   2.2932   2.5518   2.7545   2.8876   3.2041   3.7770
     3.8419   3.9113   4.0566   4.3824   4.4190   4.5249   5.4561   5.8824
     6.4248   7.3688   9.1738   9.5822   9.6004   9.8193  10.8388  11.3748
    12.8165  14.4449

          k = 0.1250 0.0000-0.0592 (  5130 PWs)   bands (ev):

   -99.9190 -99.8922 -99.3140 -99.2924 -51.2724 -51.2514 -51.1465 -51.1325
   -51.1176 -51.1043 -50.6716 -50.5702 -50.5482 -50.5398 -50.5238 -50.5110
   -15.3250 -15.3239  -4.8668  -4.8379  -2.5127  -1.5155  -1.1409  -0.8555
     0.5421   0.6303   0.9378   1.0236   1.2268   1.3867   1.4222   1.4415
     1.6747   1.7947   1.8990   1.9831   2.2944   2.3928   2.4599   2.5701
     2.6541   3.0526   3.0842   3.2209   3.2378   3.5352   3.7462   4.1533
     5.1902   9.1136   9.7746  10.0602  10.2389  10.2475  12.0097  13.0841
    13.5588  14.3547

          k =-0.1875 0.1804-0.0592 (  5074 PWs)   bands (ev):

   -99.9165 -99.8897 -99.3114 -99.2900 -51.2652 -51.2441 -51.1988 -51.1702
   -51.1472 -51.1187 -50.6620 -50.6095 -50.5763 -50.5593 -50.5533 -50.5247
   -15.1556 -15.1546  -4.2497  -4.2408  -1.6837  -0.9817  -0.5927  -0.2292
     0.2196   0.3502   0.6017   0.6930   0.8471   1.1099   1.3550   1.5397
     1.6846   1.7518   1.8830   1.9900   2.1251   2.2954   2.4354   2.7156
     2.8242   2.8830   3.1014   3.2978   3.3704   3.6754   4.0415   4.7607
     6.5597   8.2975   8.6389   9.8000   9.9622  10.0172  12.8693  14.0166
    14.4148  15.3845

          k = 0.2500 0.0722-0.0592 (  5074 PWs)   bands (ev):

   -99.9165 -99.8897 -99.3114 -99.2900 -51.2652 -51.2441 -51.1988 -51.1700
   -51.1472 -51.1190 -50.6620 -50.6095 -50.5763 -50.5593 -50.5534 -50.5247
   -15.1556 -15.1546  -4.2497  -4.2408  -1.6837  -0.9817  -0.5928  -0.2291
     0.2196   0.3505   0.6022   0.6928   0.8473   1.1095   1.3558   1.5400
     1.6845   1.7523   1.8796   1.9907   2.1258   2.2956   2.4353   2.7156
     2.8242   2.8833   3.1014   3.2983   3.3696   3.6751   4.0415   4.7604
     6.5597   8.2982   8.6392   9.7986   9.9628  10.0176  12.8692  14.0166
    14.4147  15.3843

          k =-0.3125 0.2526-0.0592 (  5044 PWs)   bands (ev):

   -99.9135 -99.8867 -99.3083 -99.2872 -51.2600 -51.2567 -51.2357 -51.2313
   -51.1645 -51.1361 -50.6734 -50.6589 -50.6126 -50.5743 -50.5668 -50.5404
   -14.9461 -14.9453  -3.5240  -3.5175  -1.0189  -0.8462  -0.4933  -0.3260
    -0.2312  -0.0058   0.1583   0.5797   0.7301   1.0725   1.3913   1.4831
     1.5932   1.7806   1.8735   2.3038   2.3499   2.7263   2.9808   3.1187
     3.2999   3.4489   3.5430   3.8473   3.9887   4.2220   4.3557   5.6372
     6.9678   7.3300   8.3302   9.6100   9.6232  10.2730  12.7269  13.4149
    14.7828  15.5707

          k = 0.3750 0.1443-0.0592 (  5044 PWs)   bands (ev):

   -99.9135 -99.8867 -99.3083 -99.2872 -51.2600 -51.2567 -51.2356 -51.2311
   -51.1645 -51.1362 -50.6733 -50.6589 -50.6126 -50.5744 -50.5668 -50.5404
   -14.9461 -14.9453  -3.5240  -3.5174  -1.0189  -0.8462  -0.4933  -0.3260
    -0.2311  -0.0058   0.1585   0.5801   0.7304   1.0721   1.3906   1.4815
     1.5937   1.7802   1.8737   2.3041   2.3498   2.7263   2.9812   3.1181
     3.3010   3.4492   3.5432   3.8477   3.9882   4.2217   4.3554   5.6370
     6.9682   7.3305   8.3305   9.6091   9.6237  10.2727  12.7268  13.4145
    14.7824  15.5716

          k =-0.4375 0.3248-0.0592 (  5006 PWs)   bands (ev):

   -99.9119 -99.8851 -99.3065 -99.2856 -51.2943 -51.2656 -51.2520 -51.2309
   -51.1743 -51.1459 -50.7041 -50.6832 -50.6102 -50.5856 -50.5735 -50.5493
   -14.8222 -14.8214  -3.0856  -3.0673  -1.1996  -1.1244  -0.5401  -0.5060
    -0.4020  -0.1705  -0.1086   0.3744   0.5472   1.1384   1.2825   1.4696
     1.7301   1.8436   2.3162   2.4605   2.7571   2.8492   3.1656   3.8023
     3.8563   3.9156   4.1207   4.3695   4.5123   4.7343   5.9564   6.1164
     6.6338   7.6054   9.0614   9.2630   9.4450   9.6791  10.6068  11.7692
    12.3803  13.5918

          k = 0.5000 0.2165-0.0592 (  5006 PWs)   bands (ev):

   -99.9119 -99.8851 -99.3065 -99.2856 -51.2943 -51.2656 -51.2520 -51.2309
   -51.1743 -51.1460 -50.7041 -50.6832 -50.6102 -50.5856 -50.5735 -50.5493
   -14.8222 -14.8214  -3.0856  -3.0672  -1.1996  -1.1244  -0.5401  -0.5060
    -0.4020  -0.1704  -0.1086   0.3746   0.5473   1.1381   1.2823   1.4699
     1.7293   1.8441   2.3162   2.4606   2.7568   2.8492   3.1655   3.8025
     3.8565   3.9157   4.1207   4.3696   4.5122   4.7343   5.9563   6.1166
     6.6339   7.6054   9.0618   9.2634   9.4449   9.6783  10.6068  11.7691
    12.3801  13.5921

          k = 0.4375-0.1804-0.0592 (  5020 PWs)   bands (ev):

   -99.9125 -99.8857 -99.3072 -99.2861 -51.2822 -51.2537 -51.2535 -51.2325
   -51.1709 -51.1425 -50.6928 -50.6738 -50.6129 -50.5815 -50.5708 -50.5462
   -14.8662 -14.8653  -3.2452  -3.2326  -1.0971  -0.9919  -0.5298  -0.4299
    -0.3460  -0.1159  -0.0152   0.4471   0.6087   1.1276   1.3270   1.4575
     1.7211   1.7696   2.3053   2.3470   2.5280   2.8082   3.1061   3.4959
     3.6606   3.7707   4.0020   4.0816   4.2665   4.4888   5.1959   5.9637
     6.6090   7.2787   8.9248   9.4751   9.4954  10.6890  10.9003  11.8370
    13.6511  15.3667

          k =-0.3750-0.2887-0.0592 (  5020 PWs)   bands (ev):

   -99.9125 -99.8857 -99.3072 -99.2861 -51.2822 -51.2537 -51.2536 -51.2325
   -51.1709 -51.1425 -50.6928 -50.6738 -50.6129 -50.5815 -50.5708 -50.5462
   -14.8662 -14.8653  -3.2452  -3.2328  -1.0971  -0.9919  -0.5298  -0.4299
    -0.3460  -0.1160  -0.0152   0.4467   0.6085   1.1283   1.3272   1.4580
     1.7220   1.7688   2.3053   2.3471   2.5280   2.8083   3.1063   3.4961
     3.6594   3.7705   4.0020   4.0814   4.2669   4.4888   5.1961   5.9636
     6.6084   7.2786   8.9237   9.4751   9.4966  10.6890  10.9007  11.8372
    13.6512  15.3662

          k = 0.3125-0.1083-0.0592 (  5064 PWs)   bands (ev):

   -99.9150 -99.8882 -99.3098 -99.2885 -51.2608 -51.2397 -51.2306 -51.2018
   -51.1562 -51.1279 -50.6605 -50.6380 -50.5996 -50.5660 -50.5617 -50.5328
   -15.0481 -15.0472  -3.8744  -3.8699  -1.2336  -0.8117  -0.4674  -0.2140
    -0.0293   0.1654   0.3899   0.7101   0.8414   1.0022   1.3388   1.3844
     1.5873   1.6987   1.8884   2.0016   2.3204   2.5536   2.7192   2.8143
     3.0307   3.1174   3.1950   3.5160   3.7117   3.8403   4.1110   5.1983
     7.0284   7.7662   8.1884   9.7421   9.7913   9.9950  13.4386  14.7312
    14.8866  15.1159

          k =-0.2500-0.2165-0.0592 (  5064 PWs)   bands (ev):

   -99.9150 -99.8882 -99.3098 -99.2885 -51.2608 -51.2397 -51.2306 -51.2020
   -51.1562 -51.1277 -50.6605 -50.6380 -50.5996 -50.5660 -50.5617 -50.5329
   -15.0481 -15.0472  -3.8744  -3.8700  -1.2337  -0.8117  -0.4674  -0.2142
    -0.0293   0.1655   0.3896   0.7095   0.8415   1.0024   1.3388   1.3849
     1.5875   1.7000   1.8882   2.0018   2.3200   2.5532   2.7196   2.8141
     3.0299   3.1171   3.1948   3.5161   3.7126   3.8400   4.1114   5.1986
     7.0283   7.7655   8.1881   9.7431   9.7908   9.9949  13.4387  14.7313
    14.8865  15.1161

          k = 0.1875-0.0361-0.0592 (  5100 PWs)   bands (ev):

   -99.9179 -99.8911 -99.3128 -99.2913 -51.2693 -51.2483 -51.1692 -51.1404
   -51.1389 -51.1107 -50.6670 -50.5841 -50.5588 -50.5485 -50.5414 -50.5170
   -15.2524 -15.2514  -4.5983  -4.5795  -2.1519  -1.2655  -0.8735  -0.5301
     0.4301   0.5182   0.7573   0.8187   1.0000   1.3092   1.5414   1.6174
     1.6747   1.7640   1.8643   1.9946   2.0970   2.2440   2.4015   2.4846
     2.6692   2.9357   3.0903   3.2180   3.2485   3.5989   3.9378   4.3721
     5.8960   8.7847   9.2366   9.8877  10.1191  10.1421  12.3753  13.4616
    13.9049  14.7964

          k =-0.1250-0.1443-0.0592 (  5100 PWs)   bands (ev):

   -99.9179 -99.8911 -99.3128 -99.2913 -51.2693 -51.2483 -51.1692 -51.1407
   -51.1389 -51.1103 -50.6670 -50.5841 -50.5588 -50.5485 -50.5413 -50.5170
   -15.2524 -15.2514  -4.5983  -4.5795  -2.1520  -1.2655  -0.8734  -0.5301
     0.4301   0.5173   0.7573   0.8188   1.0000   1.3091   1.5406   1.6173
     1.6747   1.7639   1.8645   1.9956   2.0977   2.2430   2.4011   2.4850
     2.6701   2.9357   3.0903   3.2182   3.2480   3.5996   3.9373   4.3726
     5.8960   8.7841   9.2363   9.8891  10.1182  10.1419  12.3753  13.4616
    13.9049  14.7965

          k = 0.0000-0.0722-0.0592 (  5138 PWs)   bands (ev):

   -99.9196 -99.8928 -99.3146 -99.2929 -51.2741 -51.2531 -51.1341 -51.1292
   -51.1059 -51.1002 -50.6741 -50.5662 -50.5395 -50.5359 -50.5125 -50.5079
   -15.3637 -15.3626  -5.0127  -4.9775  -2.7055  -1.6552  -1.2897  -1.0409
     0.5925   0.6671   1.0861   1.1488   1.2467   1.2890   1.4065   1.4780
     1.7396   1.8039   1.8143   1.8719   2.4454   2.4807   2.6251   2.6491
     2.9207   3.1033   3.1286   3.2378   3.2396   3.4495   3.5919   4.0974
     4.6224   9.2567  10.1173  10.2197  10.2959  10.3053  11.8006  12.8921
    13.3814  14.1124

          k = 0.3750 0.0000-0.0592 (  5074 PWs)   bands (ev):

   -99.9140 -99.8872 -99.3088 -99.2876 -51.2580 -51.2411 -51.2369 -51.2122
   -51.1715 -51.1434 -50.6617 -50.6439 -50.6109 -50.5750 -50.5663 -50.5473
   -14.9794 -14.9785  -3.6231  -3.6203  -0.8110  -0.5209  -0.2438  -0.1271
     0.0200   0.1467   0.4198   0.5354   0.7262   0.8806   1.0204   1.2004
     1.4214   1.4633   1.5927   2.0935   2.3054   2.4323   2.5803   2.8127
     3.0603   3.1872   3.5002   3.8320   4.1154   4.1841   4.4722   5.7534
     7.2828   7.5572   8.2737   9.2733   9.2862  10.2417  13.9988  14.7993
    15.1803  15.2845

          k =-0.3125 0.3969-0.0592 (  5032 PWs)   bands (ev):

   -99.9119 -99.8851 -99.3065 -99.2856 -51.2726 -51.2519 -51.2441 -51.2308
   -51.1963 -51.1678 -50.6833 -50.6652 -50.6172 -50.5993 -50.5758 -50.5659
   -14.8240 -14.8232  -3.0562  -3.0470  -0.6488  -0.5987  -0.2733  -0.2027
    -0.0391   0.0594   0.2185   0.4876   0.6741   0.8509   0.9554   1.2167
     1.2736   1.7130   1.9020   2.0521   2.1936   2.5207   2.7314   3.1455
     3.2334   3.4719   3.9361   4.3389   4.6936   4.7806   6.2709   6.6221
     6.7884   7.6070   8.5024   8.7060   9.7101  10.9200  11.6854  12.2055
    13.4649  14.5507

          k = 0.5000 0.0722-0.0592 (  5032 PWs)   bands (ev):

   -99.9119 -99.8851 -99.3065 -99.2856 -51.2726 -51.2519 -51.2438 -51.2308
   -51.1963 -51.1681 -50.6833 -50.6652 -50.6172 -50.5993 -50.5758 -50.5658
   -14.8240 -14.8232  -3.0562  -3.0464  -0.6489  -0.5988  -0.2735  -0.2022
    -0.0387   0.0593   0.2186   0.4875   0.6740   0.8500   0.9554   1.2166
[...]
     3.9465   4.0874   4.3212   4.7342   4.8538   4.9764   6.2665   6.3893
     6.9890   7.9760   9.6021   9.9449  10.0393  10.5220  11.4521  12.2970
    12.6150  13.7887

          k = 0.4375-0.1804-0.0592 (  5020 PWs)   bands (ev):

   -99.9687 -99.9457 -98.8644 -98.8387 -51.3432 -51.3223 -51.3188 -51.3057
   -51.2318 -51.2081 -50.2406 -50.2142 -50.1417 -50.1310 -50.1064 -50.1014
   -16.4847 -16.4579  -3.7112  -3.6979  -1.7475  -1.7311  -0.6800  -0.6763
     0.0212   0.0622   0.3320   0.5327   0.5709   0.6449   0.8382   1.3971
     1.9021   1.9532   2.3818   2.4443   2.5880   2.8521   3.2528   3.6170
     3.7200   3.9216   4.1115   4.4019   4.4669   4.7853   5.6163   6.3265
     7.0314   7.7791   9.5910  10.1304  10.1597  11.2615  11.3835  12.3878
    14.0225  15.4308

          k =-0.3750-0.2887-0.0592 (  5020 PWs)   bands (ev):

   -99.9687 -99.9457 -98.8644 -98.8387 -51.3433 -51.3223 -51.3190 -51.3057
   -51.2318 -51.2079 -50.2407 -50.2142 -50.1416 -50.1310 -50.1064 -50.1014
   -16.4847 -16.4579  -3.7114  -3.6984  -1.7472  -1.7310  -0.6802  -0.6764
     0.0201   0.0602   0.3329   0.5340   0.5735   0.6449   0.8384   1.3963
     1.9024   1.9539   2.3823   2.4450   2.5876   2.8537   3.2522   3.6170
     3.7178   3.9205   4.1113   4.4020   4.4672   4.7850   5.6164   6.3265
     7.0302   7.7785   9.5895  10.1298  10.1617  11.2631  11.3835  12.3878
    14.0228  15.4305

          k = 0.3125-0.1083-0.0592 (  5064 PWs)   bands (ev):

   -99.9712 -99.9483 -98.8669 -98.8412 -51.3292 -51.3127 -51.2913 -51.2666
   -51.2171 -51.1935 -50.1905 -50.1699 -50.1473 -50.1162 -50.1056 -50.0874
   -16.6475 -16.6209  -4.2466  -4.2424  -1.1480  -1.0992  -0.6515  -0.6391
    -0.2017   0.2040   0.5219   0.6388   0.7414   0.8384   1.0716   1.1848
     1.5815   1.6766   1.9602   2.3370   2.4530   2.5747   2.8155   2.8785
     2.9687   3.1363   3.4171   3.8591   3.9658   4.1589   4.2781   5.3478
     7.5280   8.4770   8.8456  10.1623  10.5288  10.5424  13.9201  14.5800
    14.9079  15.4200

          k =-0.2500-0.2165-0.0592 (  5064 PWs)   bands (ev):

   -99.9712 -99.9483 -98.8669 -98.8412 -51.3292 -51.3127 -51.2914 -51.2671
   -51.2170 -51.1930 -50.1905 -50.1699 -50.1473 -50.1162 -50.1056 -50.0874
   -16.6475 -16.6209  -4.2467  -4.2427  -1.1480  -1.0992  -0.6518  -0.6393
    -0.2020   0.2022   0.5182   0.6405   0.7462   0.8409   1.0717   1.1844
     1.5815   1.6771   1.9603   2.3371   2.4532   2.5746   2.8141   2.8753
     2.9691   3.1370   3.4168   3.8593   3.9666   4.1588   4.2780   5.3486
     7.5285   8.4759   8.8451  10.1616  10.5280  10.5431  13.9210  14.5800
    14.9078  15.4202

          k = 0.1875-0.0361-0.0592 (  5100 PWs)   bands (ev):

   -99.9742 -99.9512 -98.8699 -98.8441 -51.3372 -51.3207 -51.2297 -51.2049
   -51.1998 -51.1763 -50.1707 -50.1301 -50.1079 -50.1001 -50.0969 -50.0707
   -16.8314 -16.8050  -4.9177  -4.9108  -1.5144  -1.2388  -0.9450  -0.2502
     0.1258   0.2193   0.5046   0.5535   0.9067   0.9194   1.2871   1.4361
     1.6416   1.8928   2.0286   2.1016   2.1661   2.2644   2.3584   2.6608
     2.7006   3.0224   3.1630   3.2460   3.3715   3.8506   4.1579   4.5053
     6.1279   9.1508   9.9314  10.3000  10.8595  10.8621  13.0956  13.3075
    13.7099  14.7756

          k =-0.1250-0.1443-0.0592 (  5100 PWs)   bands (ev):

   -99.9742 -99.9512 -98.8699 -98.8441 -51.3372 -51.3207 -51.2299 -51.2059
   -51.1995 -51.1752 -50.1707 -50.1301 -50.1079 -50.1001 -50.0969 -50.0706
   -16.8313 -16.8050  -4.9176  -4.9107  -1.5146  -1.2386  -0.9449  -0.2510
     0.1257   0.2199   0.5028   0.5481   0.9109   0.9226   1.2870   1.4358
     1.6415   1.8934   2.0288   2.1012   2.1663   2.2644   2.3585   2.6598
     2.6996   3.0224   3.1630   3.2469   3.3723   3.8509   4.1579   4.5060
     6.1289   9.1502   9.9314  10.3016  10.8568  10.8611  13.0967  13.3075
    13.7100  14.7758

          k = 0.0000-0.0722-0.0592 (  5138 PWs)   bands (ev):

   -99.9759 -99.9529 -98.8716 -98.8458 -51.3417 -51.3253 -51.1950 -51.1895
   -51.1715 -51.1647 -50.1766 -50.1102 -50.0934 -50.0890 -50.0659 -50.0611
   -16.9320 -16.9057  -5.3168  -5.3048  -1.9948  -1.5069  -1.3147  -0.6728
     0.6049   0.6264   0.6871   0.7196   0.7823   0.8058   1.6243   1.6818
     1.8984   1.9225   1.9288   1.9486   2.3352   2.4097   2.4252   2.4784
     2.8564   2.9215   3.0113   3.1134   3.3558   3.8210   3.8937   4.3329
     4.8194   9.2494  10.8146  10.8884  11.0084  11.0146  12.5513  12.7462
    13.1769  14.1304

          k = 0.3750 0.0000-0.0592 (  5074 PWs)   bands (ev):

   -99.9702 -99.9473 -98.8660 -98.8402 -51.3266 -51.3100 -51.3017 -51.2769
   -51.2326 -51.2091 -50.2002 -50.1770 -50.1479 -50.1301 -50.1065 -50.1013
   -16.5858 -16.5592  -4.0186  -4.0137  -1.0388  -1.0303  -0.5415  -0.5302
    -0.2547  -0.1211   0.5538   0.7058   0.7518   0.9498   1.0998   1.1652
     1.4323   1.6102   1.7683   2.1395   2.2822   2.4392   2.6728   3.0782
     3.1386   3.3624   3.4576   3.9419   4.2852   4.4547   4.9053   5.9699
     8.0451   8.2708   8.6511   9.9758  10.0549  10.4946  14.3807  15.1186
    15.3297  15.4322

          k =-0.3125 0.3969-0.0592 (  5032 PWs)   bands (ev):

   -99.9681 -99.9451 -98.8638 -98.8381 -51.3337 -51.3207 -51.3098 -51.3039
   -51.2572 -51.2331 -50.2311 -50.2052 -50.1565 -50.1405 -50.1243 -50.1059
   -16.4469 -16.4201  -3.5366  -3.5257  -1.4782  -1.4669  -0.4913  -0.4856
    -0.2693  -0.2285   0.4990   0.5805   0.8312   0.8830   1.1203   1.2222
     1.5614   1.8924   2.0078   2.0975   2.2654   2.6474   2.9790   3.3149
     3.4288   3.7100   3.9978   4.4732   4.9488   5.0088   6.7487   7.0323
     7.2414   8.0522   9.0417   9.3100  10.2949  11.5048  12.0201  12.8313
    14.1455  14.9929

          k = 0.5000 0.0722-0.0592 (  5032 PWs)   bands (ev):

   -99.9681 -99.9451 -98.8638 -98.8381 -51.3335 -51.3207 -51.3089 -51.3040
   -51.2574 -51.2338 -50.2311 -50.2051 -50.1565 -50.1405 -50.1243 -50.1059
   -16.4469 -16.4201  -3.5362  -3.5243  -1.4786  -1.4671  -0.4915  -0.4856
    -0.2684  -0.2283   0.4959   0.5792   0.8301   0.8840   1.1201   1.2221
     1.5607   1.8912   2.0082   2.0965   2.2653   2.6469   2.9795   3.3145
     3.4287   3.7104   3.9987   4.4747   4.9490   5.0095   6.7489   7.0355
     7.2459   8.0506   9.0408   9.3092  10.2936  11.5045  12.0193  12.8305
    14.1433  14.9925

          k =-0.4375 0.4691-0.0592 (  5032 PWs)   bands (ev):

   -99.9676 -99.9446 -98.8633 -98.8377 -51.3405 -51.3193 -51.3160 -51.3028
   -51.2636 -51.2399 -50.2380 -50.2115 -50.1625 -50.1412 -50.1272 -50.1066
   -16.4137 -16.3868  -3.4155  -3.4006  -1.6219  -1.6063  -0.4802  -0.4739
    -0.2886  -0.2606   0.4229   0.4967   0.8284   0.8760   1.0593   1.3394
     1.5681   1.9437   2.0556   2.2483   2.3733   2.6908   2.9745   3.5782
     3.6589   3.7998   4.1235   4.4346   5.2943   5.3815   6.5783   6.5984
     8.0454   8.7245   8.9001   9.3410   9.8525  11.1046  11.8613  12.9394
    13.1770  14.0837

          k = 0.6250 0.1443-0.0592 (  5032 PWs)   bands (ev):

   -99.9676 -99.9446 -98.8633 -98.8377 -51.3406 -51.3193 -51.3163 -51.3027
   -51.2635 -51.2396 -50.2380 -50.2116 -50.1625 -50.1412 -50.1272 -50.1066
   -16.4137 -16.3868  -3.4157  -3.4012  -1.6216  -1.6062  -0.4801  -0.4738
    -0.2892  -0.2607   0.4240   0.4973   0.8284   0.8760   1.0593   1.3394
     1.5685   1.9441   2.0559   2.2484   2.3736   2.6911   2.9743   3.5786
     3.6582   3.8000   4.1232   4.4343   5.2941   5.3815   6.5762   6.5961
     8.0456   8.7252   8.9007   9.3415   9.8525  11.1044  11.8620  12.9405
    13.1772  14.0838

          k = 0.4375-0.0361-0.0592 (  5052 PWs)   bands (ev):

   -99.9690 -99.9461 -98.8648 -98.8391 -51.3236 -51.3197 -51.3068 -51.2952
   -51.2463 -51.2228 -50.2180 -50.1930 -50.1480 -50.1402 -50.1158 -50.1050
   -16.5077 -16.4809  -3.7481  -3.7402  -1.2508  -1.2453  -0.5087  -0.5015
    -0.2366  -0.1924   0.5568   0.7000   0.7882   0.8949   1.1033   1.2419
     1.4205   1.6994   1.9406   2.1044   2.1707   2.5140   2.9662   3.0436
     3.1712   3.6273   3.8249   4.1898   4.5690   4.7283   5.7952   6.8029
     7.7554   7.8284   9.0070   9.5815   9.8742  11.0298  13.4756  14.1208
    15.1514  15.3830

          k =-0.2500-0.3608-0.0592 (  5052 PWs)   bands (ev):

   -99.9690 -99.9461 -98.8648 -98.8391 -51.3236 -51.3200 -51.3068 -51.2963
   -51.2460 -51.2217 -50.2180 -50.1930 -50.1480 -50.1403 -50.1157 -50.1050
   -16.5077 -16.4809  -3.7485  -3.7416  -1.2512  -1.2454  -0.5088  -0.5016
    -0.2368  -0.1921   0.5595   0.7028   0.7883   0.8953   1.1033   1.2416
     1.4212   1.6997   1.9409   2.1047   2.1713   2.5138   2.9666   3.0428
     3.1724   3.6260   3.8232   4.1875   4.5694   4.7282   5.7958   6.8047
     7.7510   7.8247   9.0086   9.5814   9.8751  11.0315  13.4759  14.1221
    15.1530  15.3872

          k = 0.3125 0.0361-0.0592 (  5062 PWs)   bands (ev):

   -99.9716 -99.9486 -98.8673 -98.8415 -51.3301 -51.3136 -51.2806 -51.2558
   -51.2190 -51.1955 -50.1804 -50.1647 -50.1441 -50.1173 -50.1054 -50.0892
   -16.6688 -16.6422  -4.3129  -4.3095  -1.0248  -0.9620  -0.5529  -0.5254
    -0.3002   0.0536   0.5531   0.6124   0.7034   0.9438   1.1116   1.2250
     1.4718   1.6130   1.9030   2.1244   2.3504   2.4965   2.5910   2.8089
     2.8852   3.1806   3.3087   3.8261   4.0440   4.1671   4.2026   5.3311
     7.5206   8.6468   8.9377  10.1514  10.4121  10.4244  13.9077  14.4036
    14.7502  15.8913

          k =-0.1250-0.2887-0.0592 (  5062 PWs)   bands (ev):

   -99.9716 -99.9486 -98.8673 -98.8415 -51.3301 -51.3136 -51.2810 -51.2574
   -51.2185 -51.1939 -50.1805 -50.1648 -50.1441 -50.1173 -50.1054 -50.0891
   -16.6688 -16.6422  -4.3129  -4.3095  -1.0255  -0.9622  -0.5543  -0.5270
    -0.2993   0.0539   0.5527   0.6120   0.7043   0.9441   1.1147   1.2262
     1.4713   1.6129   1.9027   2.1239   2.3502   2.4977   2.5901   2.8076
     2.8827   3.1813   3.3095   3.8263   4.0454   4.1675   4.2025   5.3340
     7.5243   8.6446   8.9348  10.1526  10.4102  10.4226  13.9095  14.4036
    14.7502  15.8913

          k = 0.0000-0.2165-0.0592 (  5092 PWs)   bands (ev):

   -99.9737 -99.9507 -98.8694 -98.8436 -51.3358 -51.3194 -51.2415 -51.2181
   -51.2013 -51.1764 -50.1692 -50.1408 -50.1123 -50.1046 -50.1008 -50.0724
   -16.8009 -16.7745  -4.8017  -4.7959  -1.3999  -1.1772  -0.8442  -0.2780
    -0.0506   0.1669   0.5722   0.6066   0.9168   0.9295   1.1583   1.3309
     1.6350   1.9191   2.0906   2.1107   2.1184   2.1976   2.4704   2.6846
     2.7450   3.1015   3.1103   3.2760   3.5221   3.7433   4.3283   4.5547
     6.4051   9.0803   9.6877  10.1715  10.8488  10.8543  13.2253  13.4919
    13.8831  14.9682

          k = 0.6250 0.0000-0.0592 (  5044 PWs)   bands (ev):

   -99.9672 -99.9442 -98.8629 -98.8372 -51.3184 -51.3180 -51.3016 -51.2980
   -51.2934 -51.2745 -50.2164 -50.1978 -50.1887 -50.1688 -50.1300 -50.1071
   -16.3845 -16.3576  -3.2742  -3.2611  -1.2655  -1.2535  -0.8163  -0.7982
    -0.3329  -0.3218   0.6765   0.8062   0.8624   0.9746   1.2589   1.4981
     1.6739   1.7559   1.7894   2.0497   2.0808   2.8239   2.9158   3.2001
     3.2886   3.5980   4.1294   4.3000   5.7970   5.8672   6.5446   6.5562
     7.9604   8.1601   9.3097  10.2103  10.5809  10.8074  12.3518  12.4939
    13.5931  14.3487

          k =-0.4375 0.6134-0.0592 (  5050 PWs)   bands (ev):

   -99.9675 -99.9445 -98.8632 -98.8375 -51.3291 -51.3190 -51.3044 -51.3023
   -51.2783 -51.2548 -50.2268 -50.2011 -50.1764 -50.1513 -50.1307 -50.1066
   -16.4065 -16.3796  -3.3699  -3.3569  -1.3920  -1.3799  -0.5763  -0.5528
    -0.3791  -0.3675   0.5822   0.7200   0.8493   1.0004   1.2567   1.3061
     1.6034   1.7439   1.8651   2.1168   2.2034   2.6420   2.9056   3.2823
     3.3613   3.6247   4.0688   4.4725   5.4084   5.4690   6.8387   6.8524
     7.9001   8.2723   8.6545   9.5698  10.5854  11.3673  11.9864  13.1809
    13.3846  14.1831

          k = 0.7500 0.0722-0.0592 (  5050 PWs)   bands (ev):

   -99.9675 -99.9445 -98.8632 -98.8375 -51.3295 -51.3190 -51.3063 -51.3022
   -51.2778 -51.2531 -50.2269 -50.2012 -50.1763 -50.1512 -50.1307 -50.1066
   -16.4065 -16.3796  -3.3705  -3.3587  -1.3926  -1.3801  -0.5742  -0.5520
    -0.3786  -0.3674   0.5833   0.7207   0.8493   1.0013   1.2566   1.3061
     1.6033   1.7442   1.8648   2.1173   2.2031   2.6423   2.9056   3.2830
     3.3619   3.6251   4.0679   4.4718   5.4093   5.4704   6.8285   6.8489
     7.9020   8.2755   8.6562   9.5706  10.5857  11.3670  11.9883  13.1825
    13.3864  14.1856

          k = 0.4375 0.1083-0.0592 (  5038 PWs)   bands (ev):

   -99.9689 -99.9460 -98.8646 -98.8389 -51.3306 -51.3228 -51.3072 -51.3050
   -51.2389 -51.2153 -50.2282 -50.2023 -50.1437 -50.1371 -50.1090 -50.1050
   -16.4995 -16.4728  -3.7384  -3.7284  -1.4942  -1.4824  -0.5976  -0.5928
    -0.0378   0.0066   0.4616   0.5365   0.6399   0.8156   0.9445   1.2562
     1.6606   1.9391   2.0324   2.2457   2.3559   2.7431   3.0875   3.3243
     3.4759   3.7840   3.8262   4.1249   4.5157   4.7416   5.7165   6.5876
     7.4135   7.8080   9.3059   9.8257   9.9716  11.1065  12.3977  13.3303
    14.9502  15.5440

          k =-0.1250-0.4330-0.0592 (  5038 PWs)   bands (ev):

   -99.9689 -99.9460 -98.8646 -98.8389 -51.3310 -51.3228 -51.3083 -51.3056
   -51.2385 -51.2137 -50.2283 -50.2024 -50.1437 -50.1370 -50.1090 -50.1050
   -16.4995 -16.4728  -3.7387  -3.7294  -1.4957  -1.4829  -0.5960  -0.5922
    -0.0382   0.0065   0.4642   0.5375   0.6409   0.8149   0.9441   1.2549
     1.6607   1.9385   2.0330   2.2464   2.3563   2.7431   3.0875   3.3258
     3.4758   3.7832   3.8257   4.1226   4.5171   4.7420   5.7176   6.5929
     7.4123   7.8025   9.3056   9.8242   9.9723  11.1080  12.3986  13.3329
    14.9529  15.5452

          k = 0.0000-0.3608-0.0592 (  5056 PWs)   bands (ev):

   -99.9706 -99.9476 -98.8663 -98.8406 -51.3275 -51.3110 -51.3069 -51.2835
   -51.2179 -51.1930 -50.2052 -50.1810 -50.1482 -50.1174 -50.1058 -50.0884
   -16.6080 -16.5814  -4.1189  -4.1130  -1.3103  -1.2817  -0.6966  -0.6897
    -0.1131   0.2111   0.4432   0.6788   0.7663   0.7691   0.9649   1.2242
     1.6452   1.8458   2.0035   2.4839   2.5886   2.6187   2.9715   2.9882
     3.1909   3.4440   3.5376   3.9360   4.0284   4.2025   4.3324   5.4858
     7.5553   8.2238   8.8102  10.2810  10.5513  10.5580  13.9438  14.3152
    14.9270  15.2480

          k = 0.8750 0.0000-0.0592 (  5006 PWs)   bands (ev):

   -99.9678 -99.9449 -98.8636 -98.8379 -51.3514 -51.3280 -51.3199 -51.3033
   -51.2468 -51.2220 -50.2483 -50.2216 -50.1465 -50.1380 -50.1156 -50.1066
   -16.4272 -16.4004  -3.4935  -3.4769  -1.8345  -1.8155  -0.5896  -0.5873
    -0.0445  -0.0193   0.3147   0.3765   0.5697   0.7451   0.8358   1.4865
     1.7777   1.9498   2.2719   2.3733   2.6678   2.8325   3.1317   3.7640
     3.8876   4.0210   4.3366   4.4878   5.0522   5.1851   6.3840   6.4227
     7.8532   8.4040   9.3299   9.3806   9.8109  10.5502  12.0121  12.2733
    13.1620  13.4022

          k = 0.0000-0.5052-0.0592 (  4992 PWs)   bands (ev):

   -99.9684 -99.9455 -98.8641 -98.8384 -51.3529 -51.3295 -51.3215 -51.3049
   -51.2295 -51.2047 -50.2498 -50.2231 -50.1401 -50.1291 -50.1067 -50.0997
   -16.4655 -16.4387  -3.6586  -3.6424  -1.9083  -1.8885  -0.7125  -0.7098
    -0.0181   0.0264   0.2529   0.5208   0.5888   0.5943   0.7899   1.4297
     1.9730   2.1471   2.4250   2.5577   2.7035   3.0649   3.3179   3.7286
     3.7690   4.1692   4.1956   4.5253   4.8816   4.9432   5.8406   6.2348
     6.7414   7.7905   9.7545  10.2484  10.2635  10.6556  11.4737  11.7930
    13.1732  14.5684

     the Fermi energy is     6.8063 ev

!    total energy              =   -1218.78247995 Ry
     Harris-Foulkes estimate   =   -1218.78247995 Ry
     estimated scf accuracy    <          1.4E-09 Ry

     The total energy is the sum of the following terms:

     one-electron contribution =   -8084.42253338 Ry
     hartree contribution      =    4049.50768908 Ry
     xc contribution           =    -125.28351294 Ry
     ewald contribution        =    2972.82888833 Ry
     one-center paw contrib.   =     -31.41114844 Ry
     smearing contrib. (-TS)   =      -0.00186260 Ry

     convergence has been achieved in   9 iterations

     Forces acting on atoms (Ry/au):


     negative rho (up, down):  2.881E-04 0.000E+00
     atom    1 type  3   force =     0.00000000   -0.00001008   -0.00011397
     atom    2 type  2   force =     0.00000000    0.00004683    0.00041806
     atom    3 type  1   force =     0.00000000   -0.00001821    0.00014971
     atom    4 type  1   force =     0.00000000   -0.00001611    0.00074450
     atom    5 type  1   force =     0.00000000   -0.00001078    0.00013290
     atom    6 type  1   force =     0.00000000   -0.00001609    0.00002673
     atom    7 type  2   force =     0.00000000   -0.00001652   -0.00094928
     atom    8 type  3   force =     0.00000000    0.00004097   -0.00040865

     Total force =     0.001362     Total SCF correction =     0.000339
     SCF correction compared to forces is large: reduce conv_thr to get better values

     bfgs converged in  16 scf cycles and  14 bfgs steps
     (criteria: energy <  1.0E-04, force <  1.0E-03)

     End of BFGS Geometry Optimization

     Final energy   =   -1218.7824799500 Ry
Begin final coordinates

ATOMIC_POSITIONS (alat)
O        0.500001000   0.289330436  -1.007301227
C        0.500000000   0.289692478  -0.601844381
Au      -0.000000000  -0.000561426  -0.075726971
Au       0.500000000   0.288601890   0.782821596
Au       0.000000000   0.577333299   1.661721331
Au       0.000000000   0.000092570   2.527102214
C        0.500000000   0.289236017   3.052772064
O        0.500001000   0.288999736   3.458415375
End final coordinates



     Writing output data file CO_Au_hollow.save

     init_run     :     34.91s CPU     17.18s WALL (       1 calls)
     electrons    :  24101.86s CPU  11618.49s WALL (      16 calls)
     update_pot   :     23.82s CPU     23.95s WALL (      15 calls)
     forces       :    447.07s CPU    169.23s WALL (      16 calls)

     Called by init_run:
     wfcinit      :     32.62s CPU     14.96s WALL (       1 calls)
     potinit      :      0.64s CPU      0.66s WALL (       1 calls)

     Called by electrons:
     c_bands      :  21106.66s CPU   9908.10s WALL (     174 calls)
     sum_band     :   2855.36s CPU   1567.54s WALL (     174 calls)
     v_of_rho     :     38.04s CPU     37.18s WALL (     185 calls)
     newd         :     71.59s CPU     75.87s WALL (     185 calls)
     mix_rho      :      3.11s CPU      2.86s WALL (     174 calls)

     Called by c_bands:
     init_us_2    :    249.58s CPU    152.17s WALL (   19760 calls)
     cegterg      :  19806.51s CPU   9142.60s WALL (    9048 calls)

     Called by *egterg:
     h_psi        :  10326.10s CPU   5849.74s WALL (   34508 calls)
     s_psi        :   2510.20s CPU    803.88s WALL (   34508 calls)
     g_psi        :     57.36s CPU     29.20s WALL (   25408 calls)
     cdiaghg      :    765.15s CPU    378.20s WALL (   33416 calls)

     Called by h_psi:
     add_vuspsi   :   2560.86s CPU    822.21s WALL (   34508 calls)

     General routines
     calbec       :   3842.11s CPU   1236.13s WALL (   45168 calls)
     fft          :     15.00s CPU     14.61s WALL (    3107 calls)
     ffts         :      1.11s CPU      0.73s WALL (     359 calls)
     fftw         :   5545.80s CPU   4369.19s WALL ( 3123758 calls)
     interpolate  :      4.64s CPU      3.30s WALL (     359 calls)
     davcio       :      0.06s CPU      0.53s WALL (      52 calls)

     Parallel routines
     fft_scatter  :    513.95s CPU    401.77s WALL ( 3127224 calls)

     PAW routines
     PAW_pot      :     41.24s CPU     40.35s WALL (     200 calls)
     PAW_symme    :      0.01s CPU      0.01s WALL (     374 calls)

     PWSCF        :     6h52m CPU        3h17m WALL


   This run was terminated on:  20:15: 1  18Jun2018            

=------------------------------------------------------------------------------=
   JOB DONE.
=------------------------------------------------------------------------------=
