 CRYSTAL
 PRIMVEC
    2.883486610    0.000000000    0.000000000
   -1.441743305    2.497172655    0.000000000
    0.000000000    0.000000000   24.342393958
 PRIMCOORD
           8           1
O         1.441746188    0.834280438   -2.904539600
C         1.441743305    0.835324381   -1.735410214
Au        0.000000000   -0.001618864   -0.218357707
Au        1.441743305    0.832179685    2.257255590
Au        0.000000000    1.664732837    4.791551207
Au        0.000000000    0.000266924    7.286865395
C         1.441743305    0.834008182    8.802627369
O         1.441746188    0.833326869    9.972294424
BEGIN_BLOCK_DATAGRID_3D
3D_PWSCF
DATAGRID_3D_UNKNOWN
          33          33         271
  0.000000  0.000000  0.000000
  2.883487  0.000000  0.000000
 -1.441743  2.497173  0.000000
  0.000000  0.000000 24.342394
 -0.15061E+02 -0.14668E+02 -0.13548E+02 -0.11854E+02 -0.97797E+01 -0.75552E+01
 -0.54356E+01 -0.36288E+01 -0.22471E+01 -0.12960E+01 -0.67081E+00 -0.24864E+00
  0.34666E-01  0.22230E+00  0.34087E+00  0.40578E+00  0.42664E+00  0.40578E+00
  0.34087E+00  0.22230E+00  0.34666E-01 -0.24864E+00 -0.67081E+00 -0.12960E+01
 -0.22471E+01 -0.36288E+01 -0.54356E+01 -0.75552E+01 -0.97797E+01 -0.11854E+02
 -0.13548E+02 -0.14668E+02 -0.15061E+02 -0.14656E+02 -0.14656E+02 -0.13900E+02
 -0.12496E+02 -0.10618E+02 -0.84745E+01 -0.63152E+01 -0.43750E+01 -0.28104E+01
 -0.16793E+01 -0.92739E+00 -0.42527E+00 -0.84259E-01  0.14280E+00  0.29105E+00
  0.37978E+00  0.42187E+00  0.42187E+00  0.37978E+00  0.29105E+00  0.14280E+00
 -0.84259E-01 -0.42527E+00 -0.92739E+00 -0.16793E+01 -0.28104E+01 -0.43750E+01
 -0.63152E+01 -0.84745E+01 -0.10618E+02 -0.12496E+02 -0.13900E+02 -0.14656E+02
 -0.13526E+02 -0.13889E+02 -0.13526E+02 -0.12485E+02 -0.10903E+02 -0.89640E+01
 -0.68982E+01 -0.49456E+01 -0.32924E+01 -0.20361E+01 -0.11729E+01 -0.59821E+00
 -0.20463E+00  0.61694E-01  0.23806E+00  0.34973E+00  0.41231E+00  0.43272E+00
  0.41231E+00  0.34973E+00  0.23806E+00  0.61694E-01 -0.20463E+00 -0.59821E+00
 -0.11729E+01 -0.20361E+01 -0.32924E+01 -0.49456E+01 -0.68982E+01 -0.89640E+01
 -0.10903E+02 -0.12485E+02 -0.13526E+02 -0.11825E+02 -0.12479E+02 -0.12479E+02
 -0.11825E+02 -0.10600E+02 -0.89562E+01 -0.70987E+01 -0.52530E+01 -0.36159E+01
 -0.23133E+01 -0.13803E+01 -0.74938E+00 -0.31574E+00 -0.16639E-01  0.18559E+00
  0.31866E+00  0.39959E+00  0.43776E+00  0.43776E+00  0.39959E+00  0.31866E+00
  0.18559E+00 -0.16639E-01 -0.31574E+00 -0.74938E+00 -0.13803E+01 -0.23133E+01
 -0.36159E+01 -0.52530E+01 -0.70987E+01 -0.89562E+01 -0.10600E+02 -0.11825E+02
 -0.97462E+01 -0.10597E+02 -0.10894E+02 -0.10597E+02 -0.97462E+01 -0.84522E+01
 -0.68857E+01 -0.52482E+01 -0.37277E+01 -0.24639E+01 -0.15203E+01 -0.86367E+00
 -0.40616E+00 -0.84350E-01  0.13774E+00  0.28815E+00  0.38474E+00  0.43852E+00
  0.45561E+00  0.43852E+00  0.38474E+00  0.28815E+00  0.13774E+00 -0.84350E-01
 -0.40616E+00 -0.86367E+00 -0.15203E+01 -0.24639E+01 -0.37277E+01 -0.52482E+01
 -0.68857E+01 -0.84522E+01 -0.97462E+01 -0.75214E+01 -0.84512E+01 -0.89514E+01
 -0.89514E+01 -0.84512E+01 -0.75214E+01 -0.62921E+01 -0.49317E+01 -0.36089E+01
 -0.24615E+01 -0.15689E+01 -0.92513E+00 -0.46521E+00 -0.13411E+00  0.99872E-01
  0.26176E+00  0.37000E+00  0.43642E+00  0.46862E+00  0.46862E+00  0.43642E+00
  0.37000E+00  0.26176E+00  0.99872E-01 -0.13411E+00 -0.46521E+00 -0.92513E+00
 -0.15689E+01 -0.24615E+01 -0.36089E+01 -0.49317E+01 -0.62921E+01 -0.75214E+01
 -0.54053E+01 -0.62917E+01 -0.68833E+01 -0.70911E+01 -0.68833E+01 -0.62917E+01
 -0.54053E+01 -0.43543E+01 -0.32797E+01 -0.23066E+01 -0.15174E+01 -0.92418E+00
 -0.48478E+00 -0.15995E+00  0.74730E-01  0.24165E+00  0.35736E+00  0.43315E+00
  0.47604E+00  0.49038E+00  0.47604E+00  0.43315E+00  0.35736E+00  0.24165E+00
  0.74730E-01 -0.15995E+00 -0.48478E+00 -0.92418E+00 -0.15174E+01 -0.23066E+01
 -0.32797E+01 -0.43543E+01 -0.54053E+01 -0.36044E+01 -0.43527E+01 -0.49292E+01
 -0.52427E+01 -0.52427E+01 -0.49292E+01 -0.43527E+01 -0.36044E+01 -0.27941E+01
 -0.20263E+01 -0.13750E+01 -0.86103E+00 -0.46400E+00 -0.15954E+00  0.66020E-01
  0.23112E+00  0.34899E+00  0.42979E+00  0.48027E+00  0.50435E+00  0.50435E+00
  0.48027E+00  0.42979E+00  0.34899E+00  0.23112E+00  0.66019E-01 -0.15954E+00
 -0.46400E+00 -0.86104E+00 -0.13750E+01 -0.20263E+01 -0.27941E+01 -0.36044E+01
 -0.22297E+01 -0.27919E+01 -0.32755E+01 -0.36031E+01 -0.37194E+01 -0.36031E+01
 -0.32755E+01 -0.27919E+01 -0.22297E+01 -0.16679E+01 -0.11660E+01 -0.74535E+00
 -0.40398E+00 -0.13299E+00  0.75184E-01  0.23127E+00  0.34684E+00  0.42777E+00
  0.48226E+00  0.51342E+00  0.52344E+00  0.51342E+00  0.48226E+00  0.42777E+00
  0.34684E+00  0.23127E+00  0.75183E-01 -0.13299E+00 -0.40398E+00 -0.74535E+00
 -0.11660E+01 -0.16679E+01 -0.22297E+01 -0.12846E+01 -0.16657E+01 -0.20215E+01
 -0.22996E+01 -0.24535E+01 -0.24535E+01 -0.22996E+01 -0.20215E+01 -0.16657E+01
 -0.12846E+01 -0.91982E+00 -0.59336E+00 -0.31278E+00 -0.82674E-01  0.10076E+00
  0.24203E+00  0.34915E+00  0.42780E+00  0.48251E+00  0.51746E+00  0.53422E+00
  0.53422E+00  0.51746E+00  0.48251E+00  0.42780E+00  0.34915E+00  0.24203E+00
  0.10076E+00 -0.82675E-01 -0.31278E+00 -0.59336E+00 -0.91982E+00 -0.12846E+01
 -0.66328E+00 -0.91687E+00 -0.11603E+01 -0.13673E+01 -0.15076E+01 -0.15581E+01
 -0.15076E+01 -0.13673E+01 -0.11603E+01 -0.91687E+00 -0.66328E+00 -0.42015E+00
 -0.20129E+00 -0.14577E-01  0.13895E+00  0.26238E+00  0.35757E+00  0.42979E+00
  0.48215E+00  0.51736E+00  0.53765E+00  0.54457E+00  0.53765E+00  0.51736E+00
  0.48215E+00  0.42979E+00  0.35757E+00  0.26238E+00  0.13895E+00 -0.14577E-01
 -0.20129E+00 -0.42015E+00 -0.66328E+00 -0.24357E+00 -0.41707E+00 -0.58638E+00
 -0.73645E+00 -0.84961E+00 -0.91130E+00 -0.91130E+00 -0.84961E+00 -0.73645E+00
 -0.58638E+00 -0.41707E+00 -0.24357E+00 -0.80788E-01  0.63938E-01  0.18695E+00
  0.28888E+00  0.37030E+00  0.43317E+00  0.48010E+00  0.51318E+00  0.53396E+00
  0.54441E+00  0.54441E+00  0.53396E+00  0.51318E+00  0.48010E+00  0.43317E+00
  0.37030E+00  0.28888E+00  0.18695E+00  0.63938E-01 -0.80788E-01 -0.24357E+00
  0.37977E-01 -0.77289E-01 -0.19418E+00 -0.30218E+00 -0.39045E+00 -0.44884E+00
 -0.46991E+00 -0.44884E+00 -0.39045E+00 -0.30218E+00 -0.19418E+00 -0.77289E-01
  0.37977E-01  0.14505E+00  0.23946E+00  0.31944E+00  0.38503E+00  0.43638E+00
  0.47573E+00  0.50389E+00  0.52291E+00  0.53367E+00  0.53720E+00  0.53367E+00
  0.52291E+00  0.50389E+00  0.47573E+00  0.43638E+00  0.38503E+00  0.31944E+00
  0.23946E+00  0.14505E+00  0.37977E-01  0.22436E+00  0.14936E+00  0.71645E-01
 -0.33121E-02 -0.67890E-01 -0.11577E+00 -0.14215E+00 -0.14215E+00 -0.11577E+00
 -0.67890E-01 -0.33120E-02  0.71645E-01  0.14936E+00  0.22436E+00  0.29237E+00
  0.35048E+00  0.39988E+00  0.43838E+00  0.46818E+00  0.48966E+00  0.50349E+00
  0.51250E+00  0.51653E+00  0.51653E+00  0.51250E+00  0.50349E+00  0.48966E+00
  0.46818E+00  0.43838E+00  0.39988E+00  0.35048E+00  0.29237E+00  0.22436E+00
  0.34206E+00  0.29678E+00  0.24803E+00  0.19906E+00  0.15444E+00  0.11803E+00
  0.94210E-01  0.85884E-01  0.94210E-01  0.11803E+00  0.15444E+00  0.19907E+00
  0.24803E+00  0.29678E+00  0.34206E+00  0.38039E+00  0.41246E+00  0.43747E+00
  0.45499E+00  0.46774E+00  0.47487E+00  0.47892E+00  0.48081E+00  0.48105E+00
  0.48081E+00  0.47892E+00  0.47487E+00  0.46774E+00  0.45499E+00  0.43747E+00
  0.41246E+00  0.38038E+00  0.34206E+00  0.40626E+00  0.38512E+00  0.35939E+00
  0.33139E+00  0.30469E+00  0.28053E+00  0.26195E+00  0.25239E+00  0.25239E+00
  0.26195E+00  0.28053E+00  0.30469E+00  0.33139E+00  0.35939E+00  0.38512E+00
  0.40626E+00  0.42186E+00  0.43229E+00  0.43690E+00  0.43727E+00  0.43486E+00
  0.43132E+00  0.42774E+00  0.42559E+00  0.42559E+00  0.42774E+00  0.43132E+00
  0.43486E+00  0.43727E+00  0.43690E+00  0.43229E+00  0.42186E+00  0.40626E+00
  0.42649E+00  0.42650E+00  0.42154E+00  0.41196E+00  0.40060E+00  0.38909E+00
  0.37860E+00  0.37173E+00  0.36908E+00  0.37173E+00  0.37860E+00  0.38909E+00
  0.40060E+00  0.41196E+00  0.42154E+00  0.42650E+00  0.42649E+00  0.42126E+00
  0.41127E+00  0.39808E+00  0.38274E+00  0.36762E+00  0.35463E+00  0.34604E+00
  0.34376E+00  0.34604E+00  0.35463E+00  0.36762E+00  0.38274E+00  0.39808E+00
  0.41127E+00  0.42126E+00  0.42649E+00  0.40498E+00  0.42589E+00  0.44105E+00
  0.45004E+00  0.45464E+00  0.45616E+00  0.45471E+00  0.45306E+00  0.45174E+00
  0.45174E+00  0.45306E+00  0.45471E+00  0.45616E+00  0.45464E+00  0.45004E+00
  0.44105E+00  0.42589E+00  0.40498E+00  0.37841E+00  0.34786E+00  0.31625E+00
  0.28516E+00  0.25823E+00  0.23764E+00  0.22686E+00  0.22686E+00  0.23764E+00
  0.25823E+00  0.28516E+00  0.31625E+00  0.34786E+00  0.37841E+00  0.40498E+00
  0.33934E+00  0.38318E+00  0.42036E+00  0.44949E+00  0.47114E+00  0.48725E+00
  0.49787E+00  0.50362E+00  0.50707E+00  0.50846E+00  0.50707E+00  0.50362E+00
  0.49787E+00  0.48725E+00  0.47114E+00  0.44949E+00  0.42036E+00  0.38318E+00
  0.33934E+00  0.28885E+00  0.23512E+00  0.18188E+00  0.13328E+00  0.94711E-01
  0.68966E-01  0.59884E-01  0.68966E-01  0.94711E-01  0.13328E+00  0.18188E+00
  0.23512E+00  0.28885E+00  0.33934E+00  0.21988E+00  0.29330E+00  0.35684E+00
  0.41025E+00  0.45358E+00  0.48676E+00  0.51134E+00  0.52850E+00  0.53861E+00
  0.54440E+00  0.54440E+00  0.53861E+00  0.52850E+00  0.51134E+00  0.48676E+00
  0.45358E+00  0.41025E+00  0.35684E+00  0.29330E+00  0.21988E+00  0.13946E+00
  0.57275E-01 -0.22166E-01 -0.90953E-01 -0.14165E+00 -0.16824E+00 -0.16824E+00
 -0.14165E+00 -0.90953E-01 -0.22166E-01  0.57275E-01  0.13946E+00  0.21988E+00
  0.30964E-01  0.14383E+00  0.24377E+00  0.32826E+00  0.39842E+00  0.45473E+00
  0.49706E+00  0.52818E+00  0.54908E+00  0.56095E+00  0.56532E+00  0.56095E+00
  0.54908E+00  0.52818E+00  0.49706E+00  0.45473E+00  0.39842E+00  0.32826E+00
  0.24377E+00  0.14383E+00  0.30964E-01 -0.89312E-01 -0.21121E+00 -0.32394E+00
 -0.41595E+00 -0.47623E+00 -0.49666E+00 -0.47623E+00 -0.41595E+00 -0.32394E+00
 -0.21121E+00 -0.89312E-01  0.30964E-01 -0.25410E+00 -0.85703E-01  0.65133E-01
  0.19413E+00  0.30107E+00  0.38656E+00  0.45299E+00  0.50256E+00  0.53803E+00
  0.56068E+00  0.57169E+00  0.57169E+00  0.56068E+00  0.53803E+00  0.50256E+00
  0.45299E+00  0.38656E+00  0.30107E+00  0.19413E+00  0.65133E-01 -0.85703E-01
 -0.25410E+00 -0.43276E+00 -0.60793E+00 -0.76147E+00 -0.87801E+00 -0.94115E+00
 -0.94115E+00 -0.87801E+00 -0.76147E+00 -0.60793E+00 -0.43276E+00 -0.25410E+00
 -0.67881E+00 -0.42962E+00 -0.20397E+00 -0.10694E-01  0.14899E+00  0.27660E+00
  0.37584E+00  0.45112E+00  0.50583E+00  0.54363E+00  0.56491E+00  0.57156E+00
  0.56491E+00  0.54363E+00  0.50583E+00  0.45112E+00  0.37584E+00  0.27660E+00
  0.14899E+00 -0.10693E-01 -0.20397E+00 -0.42962E+00 -0.67881E+00 -0.93851E+00
 -0.11876E+01 -0.13987E+01 -0.15420E+01 -0.15928E+01 -0.15420E+01 -0.13987E+01
 -0.11876E+01 -0.93851E+00 -0.67881E+00 -0.13081E+01 -0.93546E+00 -0.60079E+00
 -0.31311E+00 -0.75923E-01  0.11221E+00  0.25784E+00  0.36888E+00  0.44975E+00
  0.50720E+00  0.54361E+00  0.56049E+00  0.56049E+00  0.54361E+00  0.50720E+00
  0.44975E+00  0.36888E+00  0.25784E+00  0.11221E+00 -0.75923E-01 -0.31311E+00
 -0.60079E+00 -0.93546E+00 -0.13081E+01 -0.16964E+01 -0.20588E+01 -0.23414E+01
 -0.24962E+01 -0.24962E+01 -0.23414E+01 -0.20588E+01 -0.16964E+01 -0.13081E+01
 -0.22654E+01 -0.16941E+01 -0.11817E+01 -0.75226E+00 -0.40208E+00 -0.12413E+00
  0.88280E-01  0.24827E+00  0.36625E+00  0.44979E+00  0.50583E+00  0.53786E+00
  0.54864E+00  0.53786E+00  0.50583E+00  0.44979E+00  0.36625E+00  0.24827E+00
  0.88280E-01 -0.12413E+00 -0.40208E+00 -0.75226E+00 -0.11817E+01 -0.16941E+01
 -0.22654E+01 -0.28359E+01 -0.33253E+01 -0.36552E+01 -0.37719E+01 -0.36552E+01
 -0.33253E+01 -0.28359E+01 -0.22654E+01 -0.36540E+01 -0.28336E+01 -0.20539E+01
 -0.13908E+01 -0.86619E+00 -0.46062E+00 -0.15040E+00  0.80123E-01  0.24844E+00
  0.36906E+00  0.45122E+00  0.50246E+00  0.52783E+00  0.52783E+00  0.50246E+00
  0.45122E+00  0.36906E+00  0.24844E+00  0.80123E-01 -0.15040E+00 -0.46062E+00
 -0.86619E+00 -0.13908E+01 -0.20539E+01 -0.28336E+01 -0.36540E+01 -0.44093E+01
 -0.49887E+01 -0.53034E+01 -0.53034E+01 -0.49887E+01 -0.44093E+01 -0.36540E+01
 -0.54668E+01 -0.44075E+01 -0.33207E+01 -0.23340E+01 -0.15317E+01 -0.92778E+00
 -0.48133E+00 -0.15001E+00  0.88817E-01  0.25833E+00  0.37619E+00  0.45311E+00
  0.49689E+00  0.51085E+00  0.49689E+00  0.45311E+00  0.37619E+00  0.25833E+00
  0.88817E-01 -0.15001E+00 -0.48133E+00 -0.92778E+00 -0.15317E+01 -0.23340E+01
 -0.33207E+01 -0.44075E+01 -0.54668E+01 -0.63569E+01 -0.69495E+01 -0.71578E+01
 -0.69495E+01 -0.63569E+01 -0.54668E+01 -0.75899E+01 -0.63562E+01 -0.49857E+01
 -0.36488E+01 -0.24876E+01 -0.15814E+01 -0.92681E+00 -0.45937E+00 -0.12288E+00
  0.11323E+00  0.27733E+00  0.38701E+00  0.45487E+00  0.48654E+00  0.48654E+00
  0.45487E+00  0.38701E+00  0.27733E+00  0.11323E+00 -0.12288E+00 -0.45937E+00
 -0.92681E+00 -0.15814E+01 -0.24876E+01 -0.36488E+01 -0.49857E+01 -0.63562E+01
 -0.75899E+01 -0.85203E+01 -0.90199E+01 -0.90199E+01 -0.85203E+01 -0.75899E+01
 -0.98140E+01 -0.85190E+01 -0.69466E+01 -0.52973E+01 -0.37628E+01 -0.24852E+01
 -0.15286E+01 -0.86330E+00 -0.39962E+00 -0.73998E-01  0.15039E+00  0.30204E+00
  0.39895E+00  0.45368E+00  0.47074E+00  0.45368E+00  0.39895E+00  0.30204E+00
  0.15039E+00 -0.73998E-01 -0.39962E+00 -0.86330E+00 -0.15286E+01 -0.24852E+01
 -0.37628E+01 -0.52973E+01 -0.69466E+01 -0.85190E+01 -0.98140E+01 -0.10663E+02
 -0.10959E+02 -0.10663E+02 -0.98140E+01 -0.11885E+02 -0.10660E+02 -0.90144E+01
 -0.71494E+01 -0.52922E+01 -0.36416E+01 -0.23269E+01 -0.13850E+01 -0.74793E+00
 -0.30985E+00 -0.83453E-02  0.19577E+00  0.32929E+00  0.41073E+00  0.44944E+00
  0.44944E+00  0.41073E+00  0.32929E+00  0.19577E+00 -0.83453E-02 -0.30985E+00
 -0.74793E+00 -0.13850E+01 -0.23269E+01 -0.36416E+01 -0.52922E+01 -0.71494E+01
 -0.90144E+01 -0.10660E+02 -0.11885E+02 -0.12537E+02 -0.12537E+02 -0.11885E+02
 -0.13570E+02 -0.12531E+02 -0.10949E+02 -0.90064E+01 -0.69337E+01 -0.49712E+01
 -0.33074E+01 -0.20435E+01 -0.11743E+01 -0.59553E+00 -0.20025E+00  0.67671E-01
  0.24544E+00  0.35782E+00  0.42075E+00  0.44088E+00  0.42075E+00  0.35782E+00
  0.24544E+00  0.67671E-01 -0.20025E+00 -0.59553E+00 -0.11743E+01 -0.20435E+01
 -0.33074E+01 -0.49712E+01 -0.69337E+01 -0.90064E+01 -0.10949E+02 -0.12531E+02
 -0.13570E+02 -0.13934E+02 -0.13570E+02 -0.14680E+02 -0.13923E+02 -0.12521E+02
 -0.10642E+02 -0.84960E+01 -0.63323E+01 -0.43860E+01 -0.28165E+01 -0.16821E+01
 -0.92736E+00 -0.42404E+00 -0.81875E-01  0.14642E+00  0.29494E+00  0.38410E+00
  0.42619E+00  0.42619E+00  0.38410E+00  0.29494E+00  0.14642E+00 -0.81875E-01
 -0.42404E+00 -0.92736E+00 -0.16821E+01 -0.28165E+01 -0.43860E+01 -0.63323E+01
 -0.84960E+01 -0.10642E+02 -0.12521E+02 -0.13923E+02 -0.14680E+02 -0.14680E+02
 -0.15061E+02 -0.14668E+02 -0.13548E+02 -0.11854E+02 -0.97797E+01 -0.75552E+01
 -0.54356E+01 -0.36288E+01 -0.22471E+01 -0.12960E+01 -0.67081E+00 -0.24864E+00
  0.34666E-01  0.22230E+00  0.34087E+00  0.40578E+00  0.42664E+00  0.40578E+00
  0.34087E+00  0.22230E+00  0.34666E-01 -0.24864E+00 -0.67081E+00 -0.12960E+01
 -0.22471E+01 -0.36288E+01 -0.54356E+01 -0.75552E+01 -0.97797E+01 -0.11854E+02
 -0.13548E+02 -0.14668E+02 -0.15061E+02 -0.12894E+02 -0.12557E+02 -0.11586E+02
 -0.10104E+02 -0.82880E+01 -0.63610E+01 -0.45473E+01 -0.30185E+01 -0.18637E+01
 -0.10683E+01 -0.53058E+00 -0.15907E+00  0.94392E-01  0.26344E+00  0.37088E+00
  0.43131E+00  0.45021E+00  0.43131E+00  0.37088E+00  0.26344E+00  0.94392E-01
 -0.15907E+00 -0.53058E+00 -0.10683E+01 -0.18637E+01 -0.30185E+01 -0.45473E+01
 -0.63610E+01 -0.82880E+01 -0.10104E+02 -0.11586E+02 -0.12557E+02 -0.12894E+02
 -0.12546E+02 -0.12546E+02 -0.11892E+02 -0.10667E+02 -0.90204E+01 -0.71547E+01
 -0.52977E+01 -0.36474E+01 -0.23327E+01 -0.13907E+01 -0.75323E+00 -0.31491E+00
 -0.12833E-01  0.19171E+00  0.32570E+00  0.40757E+00  0.44634E+00  0.44634E+00
  0.40757E+00  0.32570E+00  0.19171E+00 -0.12833E-01 -0.31491E+00 -0.75323E+00
 -0.13907E+01 -0.23327E+01 -0.36474E+01 -0.52977E+01 -0.71547E+01 -0.90204E+01
 -0.10667E+02 -0.11892E+02 -0.12546E+02 -0.11567E+02 -0.11884E+02 -0.11567E+02
 -0.10658E+02 -0.92710E+01 -0.75791E+01 -0.57963E+01 -0.41308E+01 -0.27357E+01
 -0.16882E+01 -0.96386E+00 -0.46628E+00 -0.11965E+00  0.11792E+00  0.27838E+00
  0.38042E+00  0.43736E+00  0.45566E+00  0.43736E+00  0.38042E+00  0.27838E+00
  0.11792E+00 -0.11965E+00 -0.46628E+00 -0.96386E+00 -0.16882E+01 -0.27357E+01
 -0.41308E+01 -0.57963E+01 -0.75791E+01 -0.92710E+01 -0.10658E+02 -0.11567E+02
 -0.10078E+02 -0.10653E+02 -0.10653E+02 -0.10078E+02 -0.90050E+01 -0.75724E+01
 -0.59676E+01 -0.43914E+01 -0.30076E+01 -0.19189E+01 -0.11400E+01 -0.59944E+00
 -0.21761E+00  0.48217E-01  0.23045E+00  0.35204E+00  0.42544E+00  0.46040E+00
  0.46040E+00  0.42544E+00  0.35204E+00  0.23045E+00  0.48217E-01 -0.21761E+00
 -0.59944E+00 -0.11400E+01 -0.19189E+01 -0.30076E+01 -0.43914E+01 -0.59676E+01
 -0.75724E+01 -0.90050E+01 -0.10078E+02 -0.82590E+01 -0.90023E+01 -0.92619E+01
 -0.90023E+01 -0.82590E+01 -0.71356E+01 -0.57857E+01 -0.43873E+01 -0.31021E+01
 -0.20446E+01 -0.12573E+01 -0.69805E+00 -0.29734E+00 -0.11239E-01  0.18741E+00
  0.32319E+00  0.41145E+00  0.46113E+00  0.47762E+00  0.46113E+00  0.41145E+00
  0.32319E+00  0.18741E+00 -0.11239E-01 -0.29734E+00 -0.69805E+00 -0.12573E+01
 -0.20446E+01 -0.31021E+01 -0.43873E+01 -0.57857E+01 -0.71356E+01 -0.82590E+01
 -0.63322E+01 -0.71346E+01 -0.75676E+01 -0.75676E+01 -0.71346E+01 -0.63322E+01
 -0.52781E+01 -0.41191E+01 -0.30019E+01 -0.20427E+01 -0.12983E+01 -0.75076E+00
 -0.34896E+00 -0.56103E-01  0.15316E+00  0.29901E+00  0.39800E+00  0.45913E+00
  0.48884E+00  0.48884E+00  0.45913E+00  0.39800E+00  0.29901E+00  0.15316E+00
 -0.56103E-01 -0.34896E+00 -0.75076E+00 -0.12983E+01 -0.20427E+01 -0.30019E+01
 -0.41191E+01 -0.52781E+01 -0.63322E+01 -0.45217E+01 -0.52776E+01 -0.57839E+01
 -0.59616E+01 -0.57839E+01 -0.52776E+01 -0.45217E+01 -0.36301E+01 -0.27252E+01
 -0.19133E+01 -0.12549E+01 -0.74998E+00 -0.36650E+00 -0.79687E-01  0.13016E+00
  0.28091E+00  0.38670E+00  0.45652E+00  0.49553E+00  0.50858E+00  0.49553E+00
  0.45652E+00  0.38670E+00  0.28091E+00  0.13016E+00 -0.79687E-01 -0.36650E+00
 -0.74998E+00 -0.12549E+01 -0.19133E+01 -0.27252E+01 -0.36301E+01 -0.45217E+01
 -0.29982E+01 -0.36295E+01 -0.41176E+01 -0.43833E+01 -0.43833E+01 -0.41176E+01
 -0.36295E+01 -0.29982E+01 -0.23192E+01 -0.16800E+01 -0.11355E+01 -0.69574E+00
 -0.34791E+00 -0.79343E-01  0.12280E+00  0.27204E+00  0.37883E+00  0.45329E+00
  0.49979E+00  0.52233E+00  0.52233E+00  0.49979E+00  0.45329E+00  0.37883E+00
  0.27204E+00  0.12280E+00 -0.79343E-01 -0.34791E+00 -0.69574E+00 -0.11355E+01
 -0.16800E+01 -0.23192E+01 -0.29982E+01 -0.18493E+01 -0.23181E+01 -0.27231E+01
 -0.29977E+01 -0.30950E+01 -0.29977E+01 -0.27231E+01 -0.23181E+01 -0.18493E+01
 -0.13813E+01 -0.95806E+00 -0.59600E+00 -0.29539E+00 -0.55155E-01  0.13058E+00
  0.27220E+00  0.37671E+00  0.45121E+00  0.50191E+00  0.53095E+00  0.54057E+00
  0.53095E+00  0.50191E+00  0.45121E+00  0.37671E+00  0.27220E+00  0.13058E+00
 -0.55155E-01 -0.29539E+00 -0.59600E+00 -0.95806E+00 -0.13813E+01 -0.18493E+01
 -0.10587E+01 -0.13789E+01 -0.16766E+01 -0.19087E+01 -0.20359E+01 -0.20359E+01
 -0.19087E+01 -0.16766E+01 -0.13789E+01 -0.10587E+01 -0.74675E+00 -0.46209E+00
 -0.21504E+00 -0.97561E-02  0.15392E+00  0.28126E+00  0.37896E+00  0.45123E+00
  0.50251E+00  0.53492E+00  0.55046E+00  0.55046E+00  0.53492E+00  0.50251E+00
  0.45123E+00  0.37896E+00  0.28126E+00  0.15392E+00 -0.97561E-02 -0.21504E+00
 -0.46209E+00 -0.74675E+00 -0.10587E+01 -0.52409E+00 -0.74380E+00 -0.95284E+00
 -0.11291E+01 -0.12469E+01 -0.12883E+01 -0.12469E+01 -0.11291E+01 -0.95284E+00
 -0.74380E+00 -0.52409E+00 -0.31038E+00 -0.11667E+00  0.50095E-01  0.18852E+00
  0.29956E+00  0.38689E+00  0.45327E+00  0.50185E+00  0.53484E+00  0.55376E+00
  0.56027E+00  0.55376E+00  0.53484E+00  0.50185E+00  0.45327E+00  0.38689E+00
  0.29956E+00  0.18852E+00  0.50095E-01 -0.11667E+00 -0.31038E+00 -0.52409E+00
 -0.15465E+00 -0.30716E+00 -0.45584E+00 -0.58758E+00 -0.68631E+00 -0.73861E+00
 -0.73861E+00 -0.68631E+00 -0.58758E+00 -0.45584E+00 -0.30716E+00 -0.15465E+00
 -0.97906E-02  0.11991E+00  0.23165E+00  0.32382E+00  0.39830E+00  0.45654E+00
  0.49963E+00  0.53071E+00  0.55022E+00  0.56015E+00  0.56015E+00  0.55022E+00
  0.53071E+00  0.49963E+00  0.45654E+00  0.39830E+00  0.32382E+00  0.23165E+00
  0.11991E+00 -0.97907E-02 -0.15465E+00  0.97327E-01 -0.62309E-02 -0.10958E+00
 -0.20536E+00 -0.28423E+00 -0.33548E+00 -0.35301E+00 -0.33548E+00 -0.28423E+00
 -0.20536E+00 -0.10958E+00 -0.62309E-02  0.97327E-01  0.19372E+00  0.27966E+00
  0.35272E+00  0.41170E+00  0.45912E+00  0.49527E+00  0.52194E+00  0.54007E+00
  0.54996E+00  0.55337E+00  0.54996E+00  0.54007E+00  0.52194E+00  0.49527E+00
  0.45912E+00  0.41170E+00  0.35272E+00  0.27966E+00  0.19372E+00  0.97327E-01
  0.26534E+00  0.19754E+00  0.12747E+00  0.60619E-01  0.23698E-02 -0.40556E-01
 -0.63125E-01 -0.63125E-01 -0.40556E-01  0.23698E-02  0.60619E-01  0.12747E+00
  0.19754E+00  0.26534E+00  0.32694E+00  0.38113E+00  0.42568E+00  0.46098E+00
  0.48839E+00  0.50794E+00  0.52159E+00  0.53011E+00  0.53406E+00  0.53406E+00
  0.53011E+00  0.52159E+00  0.50794E+00  0.48839E+00  0.46098E+00  0.42568E+00
  0.38113E+00  0.32694E+00  0.26534E+00  0.37197E+00  0.33090E+00  0.28716E+00
  0.24318E+00  0.20257E+00  0.16967E+00  0.14859E+00  0.14142E+00  0.14859E+00
  0.16967E+00  0.20257E+00  0.24318E+00  0.28716E+00  0.33090E+00  0.37197E+00
  0.40813E+00  0.43748E+00  0.46016E+00  0.47705E+00  0.48799E+00  0.49445E+00
  0.49856E+00  0.50062E+00  0.50120E+00  0.50062E+00  0.49856E+00  0.49445E+00
  0.48799E+00  0.47705E+00  0.46016E+00  0.43748E+00  0.40813E+00  0.37197E+00
  0.43180E+00  0.41192E+00  0.38892E+00  0.36406E+00  0.33934E+00  0.31719E+00
  0.30047E+00  0.29230E+00  0.29230E+00  0.30047E+00  0.31719E+00  0.33934E+00
  0.36406E+00  0.38892E+00  0.41192E+00  0.43180E+00  0.44636E+00  0.45525E+00
  0.45965E+00  0.46001E+00  0.45771E+00  0.45482E+00  0.45140E+00  0.44925E+00
  0.44925E+00  0.45140E+00  0.45482E+00  0.45771E+00  0.46001E+00  0.45965E+00
  0.45525E+00  0.44636E+00  0.43180E+00  0.45013E+00  0.44982E+00  0.44573E+00
  0.43777E+00  0.42712E+00  0.41638E+00  0.40700E+00  0.40096E+00  0.39924E+00
  0.40096E+00  0.40700E+00  0.41638E+00  0.42712E+00  0.43777E+00  0.44573E+00
  0.44982E+00  0.45013E+00  0.44579E+00  0.43636E+00  0.42400E+00  0.40960E+00
  0.39586E+00  0.38424E+00  0.37613E+00  0.37386E+00  0.37613E+00  0.38424E+00
  0.39586E+00  0.40960E+00  0.42400E+00  0.43636E+00  0.44579E+00  0.45013E+00
  0.43063E+00  0.44924E+00  0.46320E+00  0.47236E+00  0.47707E+00  0.47801E+00
  0.47739E+00  0.47617E+00  0.47516E+00  0.47516E+00  0.47617E+00  0.47739E+00
  0.47801E+00  0.47707E+00  0.47236E+00  0.46320E+00  0.44924E+00  0.43063E+00
  0.40639E+00  0.37874E+00  0.34982E+00  0.32045E+00  0.29580E+00  0.27730E+00
  0.26819E+00  0.26819E+00  0.27730E+00  0.29580E+00  0.32045E+00  0.34982E+00
  0.37874E+00  0.40639E+00  0.43063E+00  0.36954E+00  0.41017E+00  0.44461E+00
  0.47185E+00  0.49288E+00  0.50762E+00  0.51699E+00  0.52334E+00  0.52647E+00
  0.52731E+00  0.52647E+00  0.52334E+00  0.51699E+00  0.50762E+00  0.49288E+00
  0.47185E+00  0.44461E+00  0.41017E+00  0.36954E+00  0.32375E+00  0.27578E+00
  0.22712E+00  0.18337E+00  0.14846E+00  0.12500E+00  0.11735E+00  0.12500E+00
  0.14846E+00  0.18337E+00  0.22712E+00  0.27578E+00  0.32375E+00  0.36954E+00
  0.26124E+00  0.32773E+00  0.38659E+00  0.43618E+00  0.47615E+00  0.50722E+00
  0.52932E+00  0.54561E+00  0.55599E+00  0.56046E+00  0.56046E+00  0.55599E+00
  0.54561E+00  0.52932E+00  0.50722E+00  0.47615E+00  0.43618E+00  0.38659E+00
  0.32773E+00  0.26124E+00  0.18870E+00  0.11399E+00  0.43329E-01 -0.17082E-01
 -0.62831E-01 -0.87052E-01 -0.87052E-01 -0.62831E-01 -0.17082E-01  0.43329E-01
  0.11399E+00  0.18870E+00  0.26124E+00  0.91120E-01  0.19257E+00  0.28334E+00
  0.36122E+00  0.42511E+00  0.47671E+00  0.51621E+00  0.54526E+00  0.56565E+00
  0.57670E+00  0.58016E+00  0.57670E+00  0.56565E+00  0.54526E+00  0.51621E+00
  0.47671E+00  0.42511E+00  0.36122E+00  0.28334E+00  0.19257E+00  0.91120E-01
 -0.17298E-01 -0.12546E+00 -0.22482E+00 -0.30588E+00 -0.35866E+00 -0.37695E+00
 -0.35866E+00 -0.30588E+00 -0.22482E+00 -0.12546E+00 -0.17298E-01  0.91120E-01
 -0.16391E+00 -0.13686E-01  0.12164E+00  0.23876E+00  0.33607E+00  0.41405E+00
  0.47582E+00  0.52234E+00  0.55544E+00  0.57649E+00  0.58695E+00  0.58695E+00
  0.57649E+00  0.55544E+00  0.52234E+00  0.47582E+00  0.41405E+00  0.33607E+00
  0.23876E+00  0.12164E+00 -0.13686E-01 -0.16391E+00 -0.32148E+00 -0.47480E+00
 -0.60995E+00 -0.71038E+00 -0.76453E+00 -0.76453E+00 -0.71038E+00 -0.60995E+00
 -0.47480E+00 -0.32148E+00 -0.16391E+00 -0.53762E+00 -0.31818E+00 -0.11823E+00
  0.54037E-01  0.19769E+00  0.31363E+00  0.40449E+00  0.47443E+00  0.52535E+00
  0.55977E+00  0.57982E+00  0.58684E+00  0.57982E+00  0.55977E+00  0.52535E+00
  0.47443E+00  0.40449E+00  0.31363E+00  0.19769E+00  0.54037E-01 -0.11823E+00
 -0.31818E+00 -0.53762E+00 -0.76278E+00 -0.97637E+00 -0.11555E+01 -0.12755E+01
 -0.13183E+01 -0.12755E+01 -0.11555E+01 -0.97637E+00 -0.76278E+00 -0.53762E+00
 -0.10785E+01 -0.75975E+00 -0.46838E+00 -0.21493E+00 -0.47246E-02  0.16447E+00
  0.29674E+00  0.39833E+00  0.47332E+00  0.52611E+00  0.55969E+00  0.57626E+00
  0.57626E+00  0.55969E+00  0.52611E+00  0.47332E+00  0.39833E+00  0.29674E+00
  0.16447E+00 -0.47245E-02 -0.21493E+00 -0.46838E+00 -0.75975E+00 -0.10785E+01
 -0.14050E+01 -0.17071E+01 -0.19422E+01 -0.20715E+01 -0.20715E+01 -0.19422E+01
 -0.17071E+01 -0.14050E+01 -0.10785E+01 -0.18789E+01 -0.14025E+01 -0.97092E+00
 -0.60124E+00 -0.29441E+00 -0.47925E-01  0.14328E+00  0.28856E+00  0.39664E+00
  0.47336E+00  0.52531E+00  0.55526E+00  0.56526E+00  0.55526E+00  0.52531E+00
  0.47336E+00  0.39664E+00  0.28856E+00  0.14328E+00 -0.47925E-01 -0.29441E+00
 -0.60124E+00 -0.97092E+00 -0.14025E+01 -0.18789E+01 -0.23540E+01 -0.27632E+01
 -0.30408E+01 -0.31393E+01 -0.30408E+01 -0.27632E+01 -0.23540E+01 -0.18789E+01
 -0.30398E+01 -0.23527E+01 -0.17033E+01 -0.11487E+01 -0.70058E+00 -0.34582E+00
 -0.70426E-01  0.13626E+00  0.28874E+00  0.39853E+00  0.47451E+00  0.52228E+00
  0.54501E+00  0.54501E+00  0.52228E+00  0.47451E+00  0.39853E+00  0.28874E+00
  0.13626E+00 -0.70426E-01 -0.34582E+00 -0.70058E+00 -0.11487E+01 -0.17033E+01
 -0.23527E+01 -0.30398E+01 -0.36764E+01 -0.41673E+01 -0.44343E+01 -0.44343E+01
 -0.41673E+01 -0.36764E+01 -0.30398E+01 -0.45739E+01 -0.36755E+01 -0.27608E+01
 -0.19371E+01 -0.12670E+01 -0.75275E+00 -0.36300E+00 -0.70029E-01  0.14379E+00
  0.29719E+00  0.40479E+00  0.47594E+00  0.51608E+00  0.52882E+00  0.51608E+00
  0.47594E+00  0.40479E+00  0.29719E+00  0.14379E+00 -0.70029E-01 -0.36300E+00
 -0.75275E+00 -0.12670E+01 -0.19371E+01 -0.27608E+01 -0.36755E+01 -0.45739E+01
 -0.53333E+01 -0.58404E+01 -0.60183E+01 -0.58404E+01 -0.53333E+01 -0.45739E+01
 -0.63910E+01 -0.53325E+01 -0.41652E+01 -0.30360E+01 -0.20641E+01 -0.13076E+01
 -0.75185E+00 -0.34466E+00 -0.46801E-01  0.16538E+00  0.31428E+00  0.41446E+00
  0.47681E+00  0.50693E+00  0.50693E+00  0.47681E+00  0.41446E+00  0.31428E+00
  0.16538E+00 -0.46801E-01 -0.34466E+00 -0.75185E+00 -0.13076E+01 -0.20641E+01
 -0.30360E+01 -0.41652E+01 -0.53325E+01 -0.63910E+01 -0.71945E+01 -0.76277E+01
 -0.76277E+01 -0.71945E+01 -0.63910E+01 -0.83180E+01 -0.71931E+01 -0.58379E+01
 -0.44294E+01 -0.31313E+01 -0.20620E+01 -0.12643E+01 -0.69807E+00 -0.29230E+00
 -0.30705E-02  0.19891E+00  0.33691E+00  0.42554E+00  0.47619E+00  0.49252E+00
  0.47619E+00  0.42554E+00  0.33691E+00  0.19891E+00 -0.30705E-02 -0.29230E+00
 -0.69807E+00 -0.12643E+01 -0.20620E+01 -0.31313E+01 -0.44294E+01 -0.58379E+01
 -0.71931E+01 -0.83180E+01 -0.90606E+01 -0.93201E+01 -0.90606E+01 -0.83180E+01
 -0.10130E+02 -0.90575E+01 -0.76220E+01 -0.60113E+01 -0.44250E+01 -0.30299E+01
 -0.19312E+01 -0.11439E+01 -0.59750E+00 -0.21210E+00  0.56126E-01  0.24022E+00
  0.36214E+00  0.43661E+00  0.47183E+00  0.47183E+00  0.43661E+00  0.36214E+00
  0.24022E+00  0.56126E-01 -0.21210E+00 -0.59750E+00 -0.11439E+01 -0.19312E+01
 -0.30299E+01 -0.44250E+01 -0.60113E+01 -0.76220E+01 -0.90575E+01 -0.10130E+02
 -0.10703E+02 -0.10703E+02 -0.10130E+02 -0.11606E+02 -0.10698E+02 -0.93101E+01
 -0.76150E+01 -0.58267E+01 -0.41529E+01 -0.27496E+01 -0.16946E+01 -0.96466E+00
 -0.46379E+00 -0.11491E+00  0.12394E+00  0.28487E+00  0.38752E+00  0.44499E+00
  0.46305E+00  0.44499E+00  0.38752E+00  0.28487E+00  0.12394E+00 -0.11491E+00
 -0.46379E+00 -0.96466E+00 -0.16946E+01 -0.27496E+01 -0.41529E+01 -0.58267E+01
 -0.76150E+01 -0.93101E+01 -0.10698E+02 -0.11606E+02 -0.11922E+02 -0.11606E+02
 -0.12567E+02 -0.11914E+02 -0.10689E+02 -0.90413E+01 -0.71731E+01 -0.53120E+01
 -0.36574E+01 -0.23385E+01 -0.13924E+01 -0.75274E+00 -0.31322E+00 -0.10280E-01
  0.19488E+00  0.32923E+00  0.41099E+00  0.44950E+00  0.44950E+00  0.41099E+00
  0.32923E+00  0.19488E+00 -0.10280E-01 -0.31322E+00 -0.75274E+00 -0.13924E+01
 -0.23385E+01 -0.36574E+01 -0.53120E+01 -0.71731E+01 -0.90413E+01 -0.10689E+02
 -0.11914E+02 -0.12567E+02 -0.12567E+02 -0.12894E+02 -0.12557E+02 -0.11586E+02
 -0.10104E+02 -0.82880E+01 -0.63610E+01 -0.45473E+01 -0.30185E+01 -0.18637E+01
 -0.10683E+01 -0.53058E+00 -0.15907E+00  0.94392E-01  0.26344E+00  0.37088E+00
  0.43131E+00  0.45021E+00  0.43131E+00  0.37088E+00  0.26344E+00  0.94392E-01
 -0.15907E+00 -0.53058E+00 -0.10683E+01 -0.18637E+01 -0.30185E+01 -0.45473E+01
 -0.63610E+01 -0.82880E+01 -0.10104E+02 -0.11586E+02 -0.12557E+02 -0.12894E+02
 -0.10423E+02 -0.10140E+02 -0.93276E+01 -0.80894E+01 -0.65885E+01 -0.50188E+01
 -0.35623E+01 -0.23525E+01 -0.14480E+01 -0.81454E+00 -0.36835E+00 -0.53684E-01
  0.16459E+00  0.31258E+00  0.40741E+00  0.46141E+00  0.47801E+00  0.46141E+00
  0.40741E+00  0.31258E+00  0.16459E+00 -0.53684E-01 -0.36835E+00 -0.81454E+00
 -0.14480E+01 -0.23525E+01 -0.35623E+01 -0.50188E+01 -0.65885E+01 -0.80894E+01
 -0.93276E+01 -0.10140E+02 -0.10423E+02 -0.10132E+02 -0.10132E+02 -0.95837E+01