 CRYSTAL
 PRIMVEC
    2.883486610    0.000000000    0.000000000
   -1.441743305    2.497172655    0.000000000
    0.000000000    0.000000000   21.415655050
 PRIMCOORD
           4           1
Au        0.000000000   -0.000000000   -0.206575357
Au        1.441743305    0.832390497    2.299605937
Au        0.000000000    1.664780994    4.764023295
Au        0.000000000   -0.000000000    7.269089355
BEGIN_BLOCK_DATAGRID_3D
3D_PWSCF
DATAGRID_3D_UNKNOWN
          33          33         241
  0.000000  0.000000  0.000000
  2.883487  0.000000  0.000000
 -1.441743  2.497173  0.000000
  0.000000  0.000000 21.415655
 -0.15240E+02 -0.14837E+02 -0.13694E+02 -0.11972E+02 -0.98707E+01 -0.76203E+01
 -0.54753E+01 -0.36449E+01 -0.22429E+01 -0.12771E+01 -0.64309E+00 -0.21561E+00
  0.72612E-01  0.26323E+00  0.38360E+00  0.45029E+00  0.47171E+00  0.45029E+00
  0.38360E+00  0.26323E+00  0.72612E-01 -0.21561E+00 -0.64309E+00 -0.12771E+01
 -0.22429E+01 -0.36449E+01 -0.54753E+01 -0.76203E+01 -0.98707E+01 -0.11972E+02
 -0.13694E+02 -0.14837E+02 -0.15240E+02 -0.14837E+02 -0.14837E+02 -0.14065E+02
 -0.12637E+02 -0.10732E+02 -0.85626E+01 -0.63754E+01 -0.44075E+01 -0.28186E+01
 -0.16684E+01 -0.90351E+00 -0.39410E+00 -0.47709E-01  0.18391E+00  0.33483E+00
  0.42580E+00  0.46877E+00  0.46877E+00  0.42580E+00  0.33483E+00  0.18391E+00
 -0.47709E-01 -0.39410E+00 -0.90351E+00 -0.16684E+01 -0.28186E+01 -0.44075E+01
 -0.63754E+01 -0.85626E+01 -0.10732E+02 -0.12637E+02 -0.14065E+02 -0.14837E+02
 -0.13694E+02 -0.14065E+02 -0.13694E+02 -0.12637E+02 -0.11033E+02 -0.90690E+01
 -0.69755E+01 -0.49936E+01 -0.33130E+01 -0.20340E+01 -0.11541E+01 -0.56891E+00
 -0.16902E+00  0.10225E+00  0.28269E+00  0.39721E+00  0.46104E+00  0.48140E+00
  0.46104E+00  0.39721E+00  0.28269E+00  0.10225E+00 -0.16902E+00 -0.56891E+00
 -0.11541E+01 -0.20340E+01 -0.33130E+01 -0.49936E+01 -0.69755E+01 -0.90690E+01
 -0.11033E+02 -0.12637E+02 -0.13694E+02 -0.11972E+02 -0.12636E+02 -0.12636E+02
 -0.11972E+02 -0.10732E+02 -0.90690E+01 -0.71861E+01 -0.53122E+01 -0.36472E+01
 -0.23194E+01 -0.13670E+01 -0.72352E+00 -0.28131E+00  0.23780E-01  0.23058E+00
  0.36661E+00  0.44936E+00  0.48857E+00  0.48857E+00  0.44936E+00  0.36661E+00
  0.23058E+00  0.23780E-01 -0.28131E+00 -0.72352E+00 -0.13670E+01 -0.23194E+01
 -0.36472E+01 -0.53122E+01 -0.71861E+01 -0.90690E+01 -0.10732E+02 -0.11972E+02
 -0.98707E+01 -0.10730E+02 -0.11030E+02 -0.10730E+02 -0.98707E+01 -0.85626E+01
 -0.69755E+01 -0.53122E+01 -0.37653E+01 -0.24762E+01 -0.15113E+01 -0.84034E+00
 -0.37301E+00 -0.44241E-01  0.18276E+00  0.33668E+00  0.43552E+00  0.49121E+00
  0.50893E+00  0.49121E+00  0.43552E+00  0.33668E+00  0.18276E+00 -0.44241E-01
 -0.37301E+00 -0.84034E+00 -0.15113E+01 -0.24762E+01 -0.37653E+01 -0.53122E+01
 -0.69755E+01 -0.85626E+01 -0.98707E+01 -0.76203E+01 -0.85603E+01 -0.90651E+01
 -0.90651E+01 -0.85603E+01 -0.76203E+01 -0.63754E+01 -0.49936E+01 -0.36472E+01
 -0.24762E+01 -0.15625E+01 -0.90351E+00 -0.43321E+00 -0.94664E-01  0.14435E+00
  0.31045E+00  0.42169E+00  0.49052E+00  0.52326E+00  0.52326E+00  0.49052E+00
  0.42169E+00  0.31045E+00  0.14435E+00 -0.94664E-01 -0.43321E+00 -0.90351E+00
 -0.15625E+01 -0.24762E+01 -0.36472E+01 -0.49936E+01 -0.63754E+01 -0.76203E+01
 -0.54753E+01 -0.63731E+01 -0.69713E+01 -0.71812E+01 -0.69713E+01 -0.63731E+01
 -0.54753E+01 -0.44075E+01 -0.33130E+01 -0.23194E+01 -0.15113E+01 -0.90351E+00
 -0.45408E+00 -0.12159E+00  0.11917E+00  0.29079E+00  0.40982E+00  0.48801E+00
  0.53248E+00  0.54680E+00  0.53248E+00  0.48801E+00  0.40982E+00  0.29079E+00
  0.11917E+00 -0.12159E+00 -0.45408E+00 -0.90351E+00 -0.15113E+01 -0.23194E+01
 -0.33130E+01 -0.44075E+01 -0.54753E+01 -0.36449E+01 -0.44055E+01 -0.49898E+01
 -0.53072E+01 -0.53072E+01 -0.49898E+01 -0.44055E+01 -0.36449E+01 -0.28186E+01
 -0.20340E+01 -0.13670E+01 -0.84034E+00 -0.43321E+00 -0.12159E+00  0.11040E+00
  0.28041E+00  0.40192E+00  0.48553E+00  0.53789E+00  0.56313E+00  0.56313E+00
  0.53789E+00  0.48553E+00  0.40192E+00  0.28041E+00  0.11040E+00 -0.12159E+00
 -0.43321E+00 -0.84034E+00 -0.13670E+01 -0.20340E+01 -0.28186E+01 -0.36449E+01
 -0.22429E+01 -0.28170E+01 -0.33097E+01 -0.36426E+01 -0.37603E+01 -0.36426E+01
 -0.33097E+01 -0.28170E+01 -0.22429E+01 -0.16684E+01 -0.11541E+01 -0.72352E+00
 -0.37301E+00 -0.94664E-01  0.11917E+00  0.28041E+00  0.39913E+00  0.48376E+00
  0.54068E+00  0.57310E+00  0.58389E+00  0.57310E+00  0.54068E+00  0.48376E+00
  0.39913E+00  0.28041E+00  0.11917E+00 -0.94664E-01 -0.37301E+00 -0.72352E+00
 -0.11541E+01 -0.16684E+01 -0.22429E+01 -0.12771E+01 -0.16672E+01 -0.20313E+01
 -0.23155E+01 -0.24716E+01 -0.24716E+01 -0.23155E+01 -0.20313E+01 -0.16672E+01
 -0.12771E+01 -0.90351E+00 -0.56891E+00 -0.28131E+00 -0.44241E-01  0.14435E+00
  0.29079E+00  0.40192E+00  0.48376E+00  0.54145E+00  0.57801E+00  0.59583E+00
  0.59583E+00  0.57801E+00  0.54145E+00  0.48376E+00  0.40192E+00  0.29079E+00
  0.14435E+00 -0.44241E-01 -0.28131E+00 -0.56891E+00 -0.90351E+00 -0.12771E+01
 -0.64309E+00 -0.90245E+00 -0.11520E+01 -0.13639E+01 -0.15073E+01 -0.15582E+01
 -0.15073E+01 -0.13639E+01 -0.11520E+01 -0.90245E+00 -0.64309E+00 -0.39410E+00
 -0.16902E+00  0.23780E-01  0.18276E+00  0.31045E+00  0.40982E+00  0.48553E+00
  0.54068E+00  0.57801E+00  0.59973E+00  0.60677E+00  0.59973E+00  0.57801E+00
  0.54068E+00  0.48553E+00  0.40982E+00  0.31045E+00  0.18276E+00  0.23780E-01
 -0.16902E+00 -0.39410E+00 -0.64309E+00 -0.21561E+00 -0.39321E+00 -0.56710E+00
 -0.72088E+00 -0.83691E+00 -0.89964E+00 -0.89964E+00 -0.83691E+00 -0.72088E+00
 -0.56710E+00 -0.39321E+00 -0.21561E+00 -0.47709E-01  0.10225E+00  0.23058E+00
  0.33668E+00  0.42169E+00  0.48801E+00  0.53789E+00  0.57310E+00  0.59583E+00
  0.60677E+00  0.60677E+00  0.59583E+00  0.57310E+00  0.53789E+00  0.48801E+00
  0.42169E+00  0.33668E+00  0.23058E+00  0.10225E+00 -0.47709E-01 -0.21561E+00
  0.72612E-01 -0.46978E-01 -0.16754E+00 -0.27902E+00 -0.37007E+00 -0.42984E+00
 -0.45057E+00 -0.42984E+00 -0.37007E+00 -0.27902E+00 -0.16754E+00 -0.46978E-01
  0.72612E-01  0.18391E+00  0.28269E+00  0.36661E+00  0.43552E+00  0.49052E+00
  0.53248E+00  0.56313E+00  0.58389E+00  0.59583E+00  0.59973E+00  0.59583E+00
  0.58389E+00  0.56313E+00  0.53248E+00  0.49052E+00  0.43552E+00  0.36661E+00
  0.28269E+00  0.18391E+00  0.72612E-01  0.26323E+00  0.18456E+00  0.10353E+00
  0.25756E-01 -0.41632E-01 -0.91677E-01 -0.11832E+00 -0.11832E+00 -0.91677E-01
 -0.41632E-01  0.25756E-01  0.10353E+00  0.18456E+00  0.26323E+00  0.33483E+00
  0.39722E+00  0.44936E+00  0.49121E+00  0.52326E+00  0.54680E+00  0.56313E+00
  0.57310E+00  0.57801E+00  0.57801E+00  0.57310E+00  0.56313E+00  0.54680E+00
  0.52326E+00  0.49121E+00  0.44936E+00  0.39722E+00  0.33483E+00  0.26323E+00
  0.38360E+00  0.33546E+00  0.28392E+00  0.23235E+00  0.18507E+00  0.14705E+00
  0.12219E+00  0.11362E+00  0.12219E+00  0.14705E+00  0.18507E+00  0.23235E+00
  0.28392E+00  0.33546E+00  0.38360E+00  0.42580E+00  0.46104E+00  0.48857E+00
  0.50893E+00  0.52326E+00  0.53248E+00  0.53789E+00  0.54068E+00  0.54145E+00
  0.54068E+00  0.53789E+00  0.53248E+00  0.52326E+00  0.50893E+00  0.48857E+00
  0.46104E+00  0.42580E+00  0.38360E+00  0.45029E+00  0.42639E+00  0.39838E+00
  0.36827E+00  0.33880E+00  0.31302E+00  0.29366E+00  0.28342E+00  0.28342E+00
  0.29366E+00  0.31302E+00  0.33880E+00  0.36827E+00  0.39838E+00  0.42639E+00
  0.45029E+00  0.46877E+00  0.48140E+00  0.48857E+00  0.49121E+00  0.49052E+00
  0.48801E+00  0.48553E+00  0.48376E+00  0.48376E+00  0.48553E+00  0.48801E+00
  0.49052E+00  0.49121E+00  0.48857E+00  0.48140E+00  0.46877E+00  0.45029E+00
  0.47171E+00  0.46932E+00  0.46214E+00  0.45093E+00  0.43756E+00  0.42418E+00
  0.41264E+00  0.40489E+00  0.40214E+00  0.40489E+00  0.41264E+00  0.42418E+00
  0.43756E+00  0.45093E+00  0.46214E+00  0.46932E+00  0.47171E+00  0.46877E+00
  0.46104E+00  0.44936E+00  0.43552E+00  0.42169E+00  0.40982E+00  0.40192E+00
  0.39913E+00  0.40192E+00  0.40982E+00  0.42169E+00  0.43552E+00  0.44936E+00
  0.46104E+00  0.46877E+00  0.47171E+00  0.45029E+00  0.46932E+00  0.48251E+00
  0.49018E+00  0.49322E+00  0.49295E+00  0.49073E+00  0.48847E+00  0.48687E+00
  0.48687E+00  0.48847E+00  0.49073E+00  0.49295E+00  0.49322E+00  0.49018E+00
  0.48251E+00  0.46932E+00  0.45029E+00  0.42580E+00  0.39722E+00  0.36661E+00
  0.33669E+00  0.31045E+00  0.29079E+00  0.28041E+00  0.28041E+00  0.29079E+00
  0.31045E+00  0.33669E+00  0.36661E+00  0.39722E+00  0.42580E+00  0.45029E+00
  0.38360E+00  0.42639E+00  0.46214E+00  0.49018E+00  0.51094E+00  0.52558E+00
  0.53517E+00  0.54084E+00  0.54378E+00  0.54460E+00  0.54378E+00  0.54084E+00
  0.53517E+00  0.52558E+00  0.51094E+00  0.49018E+00  0.46214E+00  0.42639E+00
  0.38360E+00  0.33483E+00  0.28269E+00  0.23058E+00  0.18276E+00  0.14435E+00
  0.11917E+00  0.11040E+00  0.11917E+00  0.14435E+00  0.18276E+00  0.23058E+00
  0.28269E+00  0.33483E+00  0.38360E+00  0.26323E+00  0.33546E+00  0.39838E+00
  0.45093E+00  0.49322E+00  0.52558E+00  0.54944E+00  0.56610E+00  0.57627E+00
  0.58120E+00  0.58120E+00  0.57627E+00  0.56610E+00  0.54944E+00  0.52558E+00
  0.49322E+00  0.45093E+00  0.39838E+00  0.33546E+00  0.26323E+00  0.18391E+00
  0.10225E+00  0.23780E-01 -0.44240E-01 -0.94664E-01 -0.12159E+00 -0.12159E+00
 -0.94664E-01 -0.44240E-01  0.23780E-01  0.10225E+00  0.18391E+00  0.26323E+00
  0.72612E-01  0.18456E+00  0.28392E+00  0.36827E+00  0.43756E+00  0.49295E+00
  0.53517E+00  0.56610E+00  0.58706E+00  0.59912E+00  0.60303E+00  0.59912E+00
  0.58706E+00  0.56610E+00  0.53517E+00  0.49295E+00  0.43756E+00  0.36827E+00
  0.28392E+00  0.18456E+00  0.72612E-01 -0.47709E-01 -0.16902E+00 -0.28131E+00
 -0.37301E+00 -0.43321E+00 -0.45408E+00 -0.43321E+00 -0.37301E+00 -0.28131E+00
 -0.16902E+00 -0.47709E-01  0.72612E-01 -0.21561E+00 -0.46978E-01  0.10353E+00
  0.23235E+00  0.33880E+00  0.42418E+00  0.49073E+00  0.54084E+00  0.57627E+00
  0.59912E+00  0.61012E+00  0.61012E+00  0.59912E+00  0.57627E+00  0.54084E+00
  0.49073E+00  0.42418E+00  0.33880E+00  0.23235E+00  0.10353E+00 -0.46978E-01
 -0.21561E+00 -0.39410E+00 -0.56891E+00 -0.72352E+00 -0.84034E+00 -0.90351E+00
 -0.90351E+00 -0.84034E+00 -0.72352E+00 -0.56891E+00 -0.39410E+00 -0.21561E+00
 -0.64309E+00 -0.39321E+00 -0.16754E+00  0.25756E-01  0.18507E+00  0.31302E+00
  0.41264E+00  0.48847E+00  0.54378E+00  0.58120E+00  0.60303E+00  0.61012E+00
  0.60303E+00  0.58120E+00  0.54378E+00  0.48847E+00  0.41264E+00  0.31302E+00
  0.18507E+00  0.25756E-01 -0.16754E+00 -0.39321E+00 -0.64309E+00 -0.90351E+00
 -0.11541E+01 -0.13670E+01 -0.15113E+01 -0.15625E+01 -0.15113E+01 -0.13670E+01
 -0.11541E+01 -0.90351E+00 -0.64309E+00 -0.12771E+01 -0.90245E+00 -0.56710E+00
 -0.27902E+00 -0.41632E-01  0.14705E+00  0.29366E+00  0.40489E+00  0.48687E+00
  0.54460E+00  0.58120E+00  0.59912E+00  0.59912E+00  0.58120E+00  0.54460E+00
  0.48687E+00  0.40489E+00  0.29366E+00  0.14705E+00 -0.41632E-01 -0.27902E+00
 -0.56710E+00 -0.90245E+00 -0.12771E+01 -0.16684E+01 -0.20340E+01 -0.23194E+01
 -0.24762E+01 -0.24762E+01 -0.23194E+01 -0.20340E+01 -0.16684E+01 -0.12771E+01
 -0.22429E+01 -0.16672E+01 -0.11520E+01 -0.72088E+00 -0.37007E+00 -0.91677E-01
  0.12219E+00  0.28342E+00  0.40214E+00  0.48687E+00  0.54378E+00  0.57627E+00
  0.58706E+00  0.57627E+00  0.54378E+00  0.48687E+00  0.40214E+00  0.28342E+00
  0.12219E+00 -0.91677E-01 -0.37007E+00 -0.72088E+00 -0.11520E+01 -0.16672E+01
 -0.22429E+01 -0.28186E+01 -0.33130E+01 -0.36472E+01 -0.37653E+01 -0.36472E+01
 -0.33130E+01 -0.28186E+01 -0.22429E+01 -0.36449E+01 -0.28170E+01 -0.20313E+01
 -0.13639E+01 -0.83691E+00 -0.42984E+00 -0.11832E+00  0.11362E+00  0.28342E+00
  0.40489E+00  0.48847E+00  0.54084E+00  0.56610E+00  0.56610E+00  0.54084E+00
  0.48847E+00  0.40489E+00  0.28342E+00  0.11362E+00 -0.11832E+00 -0.42984E+00
 -0.83691E+00 -0.13639E+01 -0.20313E+01 -0.28170E+01 -0.36449E+01 -0.44075E+01
 -0.49936E+01 -0.53122E+01 -0.53122E+01 -0.49936E+01 -0.44075E+01 -0.36449E+01
 -0.54753E+01 -0.44055E+01 -0.33097E+01 -0.23155E+01 -0.15073E+01 -0.89964E+00
 -0.45057E+00 -0.11832E+00  0.12219E+00  0.29366E+00  0.41264E+00  0.49073E+00
  0.53517E+00  0.54944E+00  0.53517E+00  0.49073E+00  0.41264E+00  0.29366E+00
  0.12219E+00 -0.11832E+00 -0.45057E+00 -0.89964E+00 -0.15073E+01 -0.23155E+01
 -0.33097E+01 -0.44055E+01 -0.54753E+01 -0.63754E+01 -0.69755E+01 -0.71861E+01
 -0.69755E+01 -0.63754E+01 -0.54753E+01 -0.76203E+01 -0.63731E+01 -0.49898E+01
 -0.36426E+01 -0.24716E+01 -0.15582E+01 -0.89964E+00 -0.42984E+00 -0.91677E-01
  0.14705E+00  0.31302E+00  0.42418E+00  0.49295E+00  0.52558E+00  0.52558E+00
  0.49295E+00  0.42418E+00  0.31302E+00  0.14705E+00 -0.91677E-01 -0.42984E+00
 -0.89964E+00 -0.15582E+01 -0.24716E+01 -0.36426E+01 -0.49898E+01 -0.63731E+01
 -0.76203E+01 -0.85626E+01 -0.90690E+01 -0.90690E+01 -0.85626E+01 -0.76203E+01
 -0.98707E+01 -0.85603E+01 -0.69713E+01 -0.53072E+01 -0.37603E+01 -0.24716E+01
 -0.15073E+01 -0.83691E+00 -0.37007E+00 -0.41632E-01  0.18507E+00  0.33880E+00
  0.43756E+00  0.49322E+00  0.51094E+00  0.49322E+00  0.43756E+00  0.33880E+00
  0.18507E+00 -0.41632E-01 -0.37007E+00 -0.83691E+00 -0.15073E+01 -0.24716E+01
 -0.37603E+01 -0.53072E+01 -0.69713E+01 -0.85603E+01 -0.98707E+01 -0.10732E+02
 -0.11033E+02 -0.10732E+02 -0.98707E+01 -0.11972E+02 -0.10730E+02 -0.90651E+01
 -0.71812E+01 -0.53072E+01 -0.36426E+01 -0.23155E+01 -0.13639E+01 -0.72088E+00
 -0.27902E+00  0.25756E-01  0.23235E+00  0.36827E+00  0.45093E+00  0.49018E+00
  0.49018E+00  0.45093E+00  0.36827E+00  0.23235E+00  0.25756E-01 -0.27902E+00
 -0.72088E+00 -0.13639E+01 -0.23155E+01 -0.36426E+01 -0.53072E+01 -0.71812E+01
 -0.90651E+01 -0.10730E+02 -0.11972E+02 -0.12637E+02 -0.12637E+02 -0.11972E+02
 -0.13694E+02 -0.12636E+02 -0.11030E+02 -0.90651E+01 -0.69713E+01 -0.49898E+01
 -0.33097E+01 -0.20313E+01 -0.11520E+01 -0.56710E+00 -0.16754E+00  0.10353E+00
  0.28392E+00  0.39838E+00  0.46214E+00  0.48251E+00  0.46214E+00  0.39838E+00
  0.28392E+00  0.10353E+00 -0.16754E+00 -0.56710E+00 -0.11520E+01 -0.20313E+01
 -0.33097E+01 -0.49898E+01 -0.69713E+01 -0.90651E+01 -0.11030E+02 -0.12636E+02
 -0.13694E+02 -0.14065E+02 -0.13694E+02 -0.14837E+02 -0.14065E+02 -0.12636E+02
 -0.10730E+02 -0.85603E+01 -0.63731E+01 -0.44055E+01 -0.28170E+01 -0.16672E+01
 -0.90245E+00 -0.39321E+00 -0.46978E-01  0.18456E+00  0.33546E+00  0.42639E+00
  0.46932E+00  0.46932E+00  0.42639E+00  0.33546E+00  0.18456E+00 -0.46978E-01
 -0.39321E+00 -0.90245E+00 -0.16672E+01 -0.28170E+01 -0.44055E+01 -0.63731E+01
 -0.85603E+01 -0.10730E+02 -0.12636E+02 -0.14065E+02 -0.14837E+02 -0.14837E+02
 -0.15240E+02 -0.14837E+02 -0.13694E+02 -0.11972E+02 -0.98707E+01 -0.76203E+01
 -0.54753E+01 -0.36449E+01 -0.22429E+01 -0.12771E+01 -0.64309E+00 -0.21561E+00
  0.72612E-01  0.26323E+00  0.38360E+00  0.45029E+00  0.47171E+00  0.45029E+00
  0.38360E+00  0.26323E+00  0.72612E-01 -0.21561E+00 -0.64309E+00 -0.12771E+01
 -0.22429E+01 -0.36449E+01 -0.54753E+01 -0.76203E+01 -0.98707E+01 -0.11972E+02
 -0.13694E+02 -0.14837E+02 -0.15240E+02 -0.13150E+02 -0.12801E+02 -0.11802E+02
 -0.10283E+02 -0.84263E+01 -0.64587E+01 -0.46076E+01 -0.30468E+01 -0.18660E+01
 -0.10537E+01 -0.50683E+00 -0.12973E+00  0.12730E+00  0.29930E+00  0.40876E+00
  0.46989E+00  0.48949E+00  0.46989E+00  0.40876E+00  0.29930E+00  0.12730E+00
 -0.12973E+00 -0.50683E+00 -0.10537E+01 -0.18660E+01 -0.30468E+01 -0.46076E+01
 -0.64587E+01 -0.84263E+01 -0.10283E+02 -0.11802E+02 -0.12801E+02 -0.13150E+02
 -0.12801E+02 -0.12801E+02 -0.12127E+02 -0.10871E+02 -0.91861E+01 -0.72796E+01
 -0.53818E+01 -0.36951E+01 -0.23495E+01 -0.13844E+01 -0.73366E+00 -0.28775E+00
  0.19529E-01  0.22746E+00  0.36426E+00  0.44739E+00  0.48673E+00  0.48673E+00
  0.44739E+00  0.36426E+00  0.22746E+00  0.19529E-01 -0.28775E+00 -0.73366E+00
 -0.13844E+01 -0.23495E+01 -0.36951E+01 -0.53818E+01 -0.72796E+01 -0.91861E+01
 -0.10871E+02 -0.12127E+02 -0.12801E+02 -0.11802E+02 -0.12127E+02 -0.11802E+02
 -0.10871E+02 -0.94516E+01 -0.77227E+01 -0.59002E+01 -0.41957E+01 -0.27664E+01
 -0.16912E+01 -0.94921E+00 -0.44187E+00 -0.88478E-01  0.15383E+00  0.31686E+00
  0.42117E+00  0.47967E+00  0.49825E+00  0.47967E+00  0.42117E+00  0.31686E+00
  0.15383E+00 -0.88478E-01 -0.44187E+00 -0.94921E+00 -0.16912E+01 -0.27664E+01
 -0.41957E+01 -0.59002E+01 -0.77227E+01 -0.94516E+01 -0.10871E+02 -0.11802E+02
 -0.10283E+02 -0.10869E+02 -0.10869E+02 -0.10283E+02 -0.91861E+01 -0.77227E+01
 -0.60825E+01 -0.44685E+01 -0.30494E+01 -0.19306E+01 -0.11304E+01 -0.57738E+00
 -0.18806E+00  0.83443E-01  0.26967E+00  0.39317E+00  0.46895E+00  0.50494E+00
  0.50494E+00  0.46895E+00  0.39317E+00  0.26967E+00  0.83443E-01 -0.18806E+00
 -0.57738E+00 -0.11304E+01 -0.19306E+01 -0.30494E+01 -0.44685E+01 -0.60825E+01
 -0.77227E+01 -0.91861E+01 -0.10283E+02 -0.84263E+01 -0.91839E+01 -0.94484E+01
 -0.91839E+01 -0.84263E+01 -0.72796E+01 -0.59002E+01 -0.44685E+01 -0.31496E+01
 -0.20622E+01 -0.12523E+01 -0.67909E+00 -0.26916E+00  0.22668E-01  0.22644E+00
  0.36595E+00  0.45626E+00  0.50740E+00  0.52373E+00  0.50740E+00  0.45626E+00
  0.36595E+00  0.22644E+00  0.22668E-01 -0.26916E+00 -0.67909E+00 -0.12523E+01
 -0.20622E+01 -0.31496E+01 -0.44685E+01 -0.59002E+01 -0.72796E+01 -0.84263E+01
 -0.64587E+01 -0.72770E+01 -0.77184E+01 -0.77184E+01 -0.72770E+01 -0.64587E+01
 -0.53818E+01 -0.41957E+01 -0.30494E+01 -0.20622E+01 -0.12955E+01 -0.73383E+00
 -0.32239E+00 -0.22280E-01  0.19181E+00  0.34213E+00  0.44373E+00  0.50685E+00
  0.53697E+00  0.53697E+00  0.50685E+00  0.44373E+00  0.34213E+00  0.19181E+00
 -0.22280E-01 -0.32239E+00 -0.73383E+00 -0.12955E+01 -0.20622E+01 -0.30494E+01
 -0.41957E+01 -0.53818E+01 -0.64587E+01 -0.46076E+01 -0.53792E+01 -0.58956E+01
 -0.60771E+01 -0.58956E+01 -0.53792E+01 -0.46076E+01 -0.36951E+01 -0.27664E+01
 -0.19306E+01 -0.12523E+01 -0.73383E+00 -0.34086E+00 -0.46315E-01  0.16920E+00
  0.32437E+00  0.43289E+00  0.50465E+00  0.54552E+00  0.55884E+00  0.54552E+00
  0.50465E+00  0.43289E+00  0.32437E+00  0.16920E+00 -0.46315E-01 -0.34086E+00
 -0.73383E+00 -0.12523E+01 -0.19306E+01 -0.27664E+01 -0.36951E+01 -0.46076E+01
 -0.30468E+01 -0.36929E+01 -0.41913E+01 -0.44629E+01 -0.44629E+01 -0.41913E+01
 -0.36929E+01 -0.30468E+01 -0.23495E+01 -0.16912E+01 -0.11304E+01 -0.67909E+00
 -0.32239E+00 -0.46315E-01  0.16131E+00  0.31499E+00  0.42567E+00  0.50243E+00
  0.55059E+00  0.57400E+00  0.57400E+00  0.55059E+00  0.50243E+00  0.42567E+00
  0.31499E+00  0.16131E+00 -0.46315E-01 -0.32239E+00 -0.67909E+00 -0.11304E+01
 -0.16912E+01 -0.23495E+01 -0.30468E+01 -0.18660E+01 -0.23476E+01 -0.27627E+01
 -0.30442E+01 -0.31439E+01 -0.30442E+01 -0.27627E+01 -0.23476E+01 -0.18660E+01
 -0.13844E+01 -0.94921E+00 -0.57738E+00 -0.26916E+00 -0.22280E-01  0.16920E+00
  0.31499E+00  0.42315E+00  0.50090E+00  0.55329E+00  0.58326E+00  0.59327E+00
  0.58326E+00  0.55329E+00  0.50090E+00  0.42315E+00  0.31499E+00  0.16920E+00
 -0.22280E-01 -0.26916E+00 -0.57738E+00 -0.94921E+00 -0.13844E+01 -0.18660E+01
 -0.10537E+01 -0.13829E+01 -0.16881E+01 -0.19261E+01 -0.20569E+01 -0.20569E+01
 -0.19261E+01 -0.16881E+01 -0.13829E+01 -0.10537E+01 -0.73366E+00 -0.44187E+00
 -0.18806E+00  0.22668E-01  0.19181E+00  0.32437E+00  0.42567E+00  0.50090E+00
  0.55403E+00  0.58780E+00  0.60432E+00  0.60432E+00  0.58780E+00  0.55403E+00
  0.50090E+00  0.42567E+00  0.32437E+00  0.19181E+00  0.22668E-01 -0.18806E+00
 -0.44187E+00 -0.73366E+00 -0.10537E+01 -0.50683E+00 -0.73247E+00 -0.94670E+00
 -0.11267E+01 -0.12478E+01 -0.12906E+01 -0.12478E+01 -0.11267E+01 -0.94670E+00
 -0.73247E+00 -0.50683E+00 -0.28775E+00 -0.88478E-01  0.83443E-01  0.22644E+00
  0.34213E+00  0.43289E+00  0.50243E+00  0.55329E+00  0.58780E+00  0.60795E+00
  0.61448E+00  0.60795E+00  0.58780E+00  0.55329E+00  0.50243E+00  0.43289E+00
  0.34213E+00  0.22644E+00  0.83443E-01 -0.88478E-01 -0.28775E+00 -0.50683E+00
 -0.12973E+00 -0.28678E+00 -0.43980E+00 -0.57432E+00 -0.67520E+00 -0.72949E+00
 -0.72949E+00 -0.67520E+00 -0.57432E+00 -0.43980E+00 -0.28678E+00 -0.12973E+00
  0.19529E-01  0.15383E+00  0.26967E+00  0.36595E+00  0.44373E+00  0.50465E+00
  0.55059E+00  0.58326E+00  0.60432E+00  0.61448E+00  0.61448E+00  0.60432E+00
  0.58326E+00  0.55059E+00  0.50465E+00  0.44373E+00  0.36595E+00  0.26967E+00
  0.15383E+00  0.19529E-01 -0.12973E+00  0.12730E+00  0.20400E-01 -0.86692E-01
 -0.18538E+00 -0.26575E+00 -0.31845E+00 -0.33675E+00 -0.31845E+00 -0.26575E+00
 -0.18538E+00 -0.86692E-01  0.20400E-01  0.12730E+00  0.22746E+00  0.31686E+00
  0.39318E+00  0.45626E+00  0.50685E+00  0.54552E+00  0.57400E+00  0.59327E+00
  0.60432E+00  0.60795E+00  0.60432E+00  0.59327E+00  0.57400E+00  0.54552E+00
  0.50685E+00  0.45626E+00  0.39318E+00  0.31686E+00  0.22746E+00  0.12730E+00
  0.29930E+00  0.22823E+00  0.15538E+00  0.85793E-01  0.25722E-01 -0.18706E-01
 -0.42422E-01 -0.42422E-01 -0.18706E-01  0.25722E-01  0.85793E-01  0.15538E+00
  0.22823E+00  0.29930E+00  0.36426E+00  0.42117E+00  0.46895E+00  0.50740E+00
  0.53697E+00  0.55884E+00  0.57400E+00  0.58326E+00  0.58780E+00  0.58780E+00
  0.58326E+00  0.57400E+00  0.55884E+00  0.53697E+00  0.50740E+00  0.46895E+00
  0.42117E+00  0.36426E+00  0.29930E+00  0.40876E+00  0.36495E+00  0.31831E+00
  0.27187E+00  0.22929E+00  0.19518E+00  0.17290E+00  0.16513E+00  0.17290E+00
  0.19518E+00  0.22929E+00  0.27187E+00  0.31831E+00  0.36495E+00  0.40876E+00
  0.44739E+00  0.47967E+00  0.50494E+00  0.52373E+00  0.53697E+00  0.54552E+00
  0.55059E+00  0.55329E+00  0.55403E+00  0.55329E+00  0.55059E+00  0.54552E+00
  0.53697E+00  0.52373E+00  0.50494E+00  0.47967E+00  0.44739E+00  0.40876E+00
  0.46989E+00  0.44805E+00  0.42256E+00  0.39533E+00  0.36872E+00  0.34539E+00
  0.32803E+00  0.31881E+00  0.31881E+00  0.32803E+00  0.34539E+00  0.36872E+00
  0.39533E+00  0.42256E+00  0.44805E+00  0.46989E+00  0.48673E+00  0.49825E+00
  0.50494E+00  0.50740E+00  0.50685E+00  0.50466E+00  0.50243E+00  0.50090E+00
  0.50090E+00  0.50243E+00  0.50466E+00  0.50685E+00  0.50740E+00  0.50494E+00
  0.49825E+00  0.48673E+00  0.46989E+00  0.48949E+00  0.48742E+00  0.48105E+00
  0.47100E+00  0.45897E+00  0.44690E+00  0.43648E+00  0.42956E+00  0.42713E+00
  0.42956E+00  0.43648E+00  0.44690E+00  0.45897E+00  0.47100E+00  0.48105E+00
  0.48742E+00  0.48949E+00  0.48673E+00  0.47967E+00  0.46895E+00  0.45626E+00
  0.44373E+00  0.43289E+00  0.42567E+00  0.42315E+00  0.42567E+00  0.43289E+00
  0.44373E+00  0.45626E+00  0.46895E+00  0.47967E+00  0.48673E+00  0.48949E+00
  0.46989E+00  0.48742E+00  0.49968E+00  0.50697E+00  0.51006E+00  0.51009E+00
  0.50825E+00  0.50634E+00  0.50498E+00  0.50498E+00  0.50634E+00  0.50825E+00
  0.51009E+00  0.51006E+00  0.50697E+00  0.49968E+00  0.48742E+00  0.46989E+00
  0.44739E+00  0.42117E+00  0.39318E+00  0.36595E+00  0.34213E+00  0.32437E+00
  0.31499E+00  0.31499E+00  0.32437E+00  0.34213E+00  0.36595E+00  0.39318E+00
  0.42117E+00  0.44739E+00  0.46989E+00  0.40876E+00  0.44805E+00  0.48105E+00
  0.50697E+00  0.52638E+00  0.54022E+00  0.54920E+00  0.55458E+00  0.55747E+00
  0.55827E+00  0.55747E+00  0.55458E+00  0.54920E+00  0.54022E+00  0.52638E+00
  0.50697E+00  0.48105E+00  0.44805E+00  0.40876E+00  0.36426E+00  0.31686E+00
  0.26967E+00  0.22644E+00  0.19181E+00  0.16920E+00  0.16131E+00  0.16920E+00
  0.19181E+00  0.22644E+00  0.26967E+00  0.31686E+00  0.36426E+00  0.40876E+00
  0.29930E+00  0.36495E+00  0.42256E+00  0.47100E+00  0.51006E+00  0.54022E+00
  0.56249E+00  0.57800E+00  0.58755E+00  0.59222E+00  0.59222E+00  0.58755E+00
  0.57800E+00  0.56249E+00  0.54022E+00  0.51006E+00  0.47100E+00  0.42256E+00
  0.36495E+00  0.29930E+00  0.22746E+00  0.15383E+00  0.83443E-01  0.22669E-01
 -0.22280E-01 -0.46314E-01 -0.46314E-01 -0.22280E-01  0.22669E-01  0.83443E-01
  0.15383E+00  0.22746E+00  0.29930E+00  0.12730E+00  0.22823E+00  0.31831E+00
  0.39533E+00  0.45897E+00  0.51009E+00  0.54920E+00  0.57800E+00  0.59755E+00
  0.60878E+00  0.61250E+00  0.60878E+00  0.59755E+00  0.57800E+00  0.54920E+00
  0.51009E+00  0.45897E+00  0.39533E+00  0.31831E+00  0.22823E+00  0.12730E+00
  0.19529E-01 -0.88478E-01 -0.18806E+00 -0.26916E+00 -0.32239E+00 -0.34086E+00
 -0.32239E+00 -0.26916E+00 -0.18806E+00 -0.88478E-01  0.19529E-01  0.12730E+00
 -0.12973E+00  0.20400E-01  0.15538E+00  0.27187E+00  0.36872E+00  0.44690E+00
  0.50825E+00  0.55458E+00  0.58755E+00  0.60878E+00  0.61904E+00  0.61904E+00
  0.60878E+00  0.58755E+00  0.55458E+00  0.50825E+00  0.44690E+00  0.36872E+00
  0.27187E+00  0.15538E+00  0.20400E-01 -0.12973E+00 -0.28775E+00 -0.44187E+00
 -0.57738E+00 -0.67909E+00 -0.73383E+00 -0.73383E+00 -0.67909E+00 -0.57738E+00
 -0.44187E+00 -0.28775E+00 -0.12973E+00 -0.50683E+00 -0.28678E+00 -0.86692E-01
  0.85793E-01  0.22929E+00  0.34539E+00  0.43648E+00  0.50634E+00  0.55747E+00
  0.59222E+00  0.61250E+00  0.61904E+00  0.61250E+00  0.59222E+00  0.55747E+00
  0.50634E+00  0.43648E+00  0.34539E+00  0.22929E+00  0.85793E-01 -0.86692E-01
 -0.28678E+00 -0.50683E+00 -0.73365E+00 -0.94921E+00 -0.11304E+01 -0.12523E+01
 -0.12955E+01 -0.12523E+01 -0.11304E+01 -0.94921E+00 -0.73365E+00 -0.50683E+00
 -0.10537E+01 -0.73247E+00 -0.43980E+00 -0.18538E+00  0.25722E-01  0.19518E+00
  0.32803E+00  0.42956E+00  0.50498E+00  0.55827E+00  0.59222E+00  0.60878E+00
  0.60878E+00  0.59222E+00  0.55827E+00  0.50498E+00  0.42956E+00  0.32803E+00
  0.19518E+00  0.25722E-01 -0.18538E+00 -0.43980E+00 -0.73247E+00 -0.10537E+01
 -0.13844E+01 -0.16912E+01 -0.19306E+01 -0.20622E+01 -0.20622E+01 -0.19306E+01
 -0.16912E+01 -0.13844E+01 -0.10537E+01 -0.18660E+01 -0.13829E+01 -0.94670E+00
 -0.57432E+00 -0.26575E+00 -0.18706E-01  0.17290E+00  0.31881E+00  0.42713E+00
  0.50498E+00  0.55747E+00  0.58755E+00  0.59755E+00  0.58755E+00  0.55747E+00
  0.50498E+00  0.42713E+00  0.31881E+00  0.17290E+00 -0.18706E-01 -0.26575E+00
 -0.57432E+00 -0.94670E+00 -0.13829E+01 -0.18660E+01 -0.23495E+01 -0.27664E+01
 -0.30494E+01 -0.31496E+01 -0.30494E+01 -0.27664E+01 -0.23495E+01 -0.18660E+01
 -0.30468E+01 -0.23476E+01 -0.16881E+01 -0.11267E+01 -0.67520E+00 -0.31845E+00
 -0.42422E-01  0.16513E+00  0.31881E+00  0.42956E+00  0.50634E+00  0.55458E+00
  0.57800E+00  0.57800E+00  0.55458E+00  0.50634E+00  0.42956E+00  0.31881E+00
  0.16513E+00 -0.42422E-01 -0.31845E+00 -0.67520E+00 -0.11267E+01 -0.16881E+01
 -0.23476E+01 -0.30468E+01 -0.36951E+01 -0.41957E+01 -0.44685E+01 -0.44685E+01
 -0.41957E+01 -0.36951E+01 -0.30468E+01 -0.46076E+01 -0.36929E+01 -0.27627E+01
 -0.19261E+01 -0.12478E+01 -0.72949E+00 -0.33675E+00 -0.42422E-01  0.17290E+00
  0.32803E+00  0.43648E+00  0.50825E+00  0.54920E+00  0.56249E+00  0.54920E+00
  0.50825E+00  0.43648E+00  0.32803E+00  0.17290E+00 -0.42422E-01 -0.33675E+00
 -0.72949E+00 -0.12478E+01 -0.19261E+01 -0.27627E+01 -0.36929E+01 -0.46076E+01
 -0.53818E+01 -0.59002E+01 -0.60825E+01 -0.59002E+01 -0.53818E+01 -0.46076E+01
 -0.64587E+01 -0.53792E+01 -0.41913E+01 -0.30442E+01 -0.20569E+01 -0.12906E+01
 -0.72949E+00 -0.31845E+00 -0.18707E-01  0.19518E+00  0.34539E+00  0.44690E+00
  0.51009E+00  0.54022E+00  0.54022E+00  0.51009E+00  0.44690E+00  0.34539E+00
  0.19518E+00 -0.18707E-01 -0.31845E+00 -0.72949E+00 -0.12906E+01 -0.20569E+01
 -0.30442E+01 -0.41913E+01 -0.53792E+01 -0.64587E+01 -0.72796E+01 -0.77227E+01
 -0.77227E+01 -0.72796E+01 -0.64587E+01 -0.84263E+01 -0.72770E+01 -0.58956E+01
 -0.44629E+01 -0.31439E+01 -0.20569E+01 -0.12478E+01 -0.67520E+00 -0.26575E+00
  0.25722E-01  0.22929E+00  0.36872E+00  0.45897E+00  0.51006E+00  0.52638E+00
  0.51006E+00  0.45897E+00  0.36872E+00  0.22929E+00  0.25722E-01 -0.26575E+00
 -0.67520E+00 -0.12478E+01 -0.20569E+01 -0.31439E+01 -0.44629E+01 -0.58956E+01
 -0.72770E+01 -0.84263E+01 -0.91861E+01 -0.94516E+01 -0.91861E+01 -0.84263E+01
 -0.10283E+02 -0.91839E+01 -0.77184E+01 -0.60771E+01 -0.44629E+01 -0.30442E+01
 -0.19261E+01 -0.11267E+01 -0.57432E+00 -0.18538E+00  0.85793E-01  0.27187E+00
  0.39533E+00  0.47100E+00  0.50697E+00  0.50697E+00  0.47100E+00  0.39533E+00
  0.27187E+00  0.85793E-01 -0.18538E+00 -0.57432E+00 -0.11267E+01 -0.19261E+01
 -0.30442E+01 -0.44629E+01 -0.60771E+01 -0.77184E+01 -0.91839E+01 -0.10283E+02
 -0.10871E+02 -0.10871E+02 -0.10283E+02 -0.11802E+02 -0.10869E+02 -0.94484E+01
 -0.77184E+01 -0.58956E+01 -0.41913E+01 -0.27627E+01 -0.16881E+01 -0.94670E+00
 -0.43980E+00 -0.86692E-01  0.15538E+00  0.31831E+00  0.42256E+00  0.48105E+00
  0.49968E+00  0.48105E+00  0.42256E+00  0.31831E+00  0.15538E+00 -0.86692E-01
 -0.43980E+00 -0.94670E+00 -0.16881E+01 -0.27627E+01 -0.41913E+01 -0.58956E+01
 -0.77184E+01 -0.94484E+01 -0.10869E+02 -0.11802E+02 -0.12127E+02 -0.11802E+02
 -0.12801E+02 -0.12127E+02 -0.10869E+02 -0.91839E+01 -0.72770E+01 -0.53792E+01
 -0.36929E+01 -0.23476E+01 -0.13829E+01 -0.73247E+00 -0.28678E+00  0.20400E-01
  0.22823E+00  0.36495E+00  0.44805E+00  0.48742E+00  0.48742E+00  0.44805E+00
  0.36495E+00  0.22823E+00  0.20400E-01 -0.28678E+00 -0.73247E+00 -0.13829E+01
 -0.23476E+01 -0.36929E+01 -0.53792E+01 -0.72770E+01 -0.91839E+01 -0.10869E+02
 -0.12127E+02 -0.12801E+02 -0.12801E+02 -0.13150E+02 -0.12801E+02 -0.11802E+02
 -0.10283E+02 -0.84263E+01 -0.64587E+01 -0.46076E+01 -0.30468E+01 -0.18660E+01
 -0.10537E+01 -0.50683E+00 -0.12973E+00  0.12730E+00  0.29930E+00  0.40876E+00
  0.46989E+00  0.48949E+00  0.46989E+00  0.40876E+00  0.29930E+00  0.12730E+00
 -0.12973E+00 -0.50683E+00 -0.10537E+01 -0.18660E+01 -0.30468E+01 -0.46076E+01
 -0.64587E+01 -0.84263E+01 -0.10283E+02 -0.11802E+02 -0.12801E+02 -0.13150E+02
 -0.10727E+02 -0.10432E+02 -0.95869E+01 -0.83035E+01 -0.67517E+01 -0.51313E+01
 -0.36292E+01 -0.23815E+01 -0.14500E+01 -0.80135E+00 -0.34766E+00 -0.27933E-01
  0.19323E+00  0.34338E+00  0.43992E+00  0.49438E+00  0.51186E+00  0.49438E+00
  0.43992E+00  0.34338E+00  0.19323E+00 -0.27933E-01 -0.34766E+00 -0.80135E+00
 -0.14500E+01 -0.23815E+01 -0.36292E+01 -0.51313E+01 -0.67517E+01 -0.83035E+01
 -0.95869E+01 -0.10432E+02 -0.10727E+02 -0.10432E+02 -0.10432E+02 -0.98624E+01
 -0.87993E+01 -0.73844E+01 -0.58044E+01 -0.42550E+01 -0.28975E+01 -0.18310E+01
 -0.10682E+01 -0.53783E+00 -0.16247E+00  0.99892E-01  0.28034E+00  0.40038E+00