
     Program POST-PROC v.5.1 starts on 18Jun2018 at 14:43:15 

     This program is part of the open-source Quantum ESPRESSO suite
     for quantum simulation of materials; please cite
         "P. Giannozzi et al., J. Phys.:Condens. Matter 21 395502 (2009);
          URL http://www.quantum-espresso.org", 
     in publications or presentations arising from this work. More details at
     http://www.quantum-espresso.org/quote

     Parallel version (MPI), running on     1 processors
     Reading header from file  Au_CO_tmp.pp

   Info: using nr1, nr2, nr3 values from input
     Reading data from file  Au_CO_tmp.pp
     Reading data from file  Au_tmp.pp
     Reading data from file  CO_tmp.pp

     Writing data to be plotted to file rho_3D.xsf
     Plot Type: 3D                     Output format: XCrySDen     
