 CRYSTAL
 PRIMVEC
    2.883486610    0.000000000    0.000000000
   -1.441743305    2.497172655    0.000000000
    0.000000000    0.000000000   21.415655050
 PRIMCOORD
           6           1
Au       -0.000000000   -0.000007102   -0.212319193
Au        1.441743305    0.832380367    2.301052161
Au        0.000000000    1.664689201    4.806764609
Au        0.000000000    0.000046785    7.292727111
C         1.441743305    0.834427897    8.811121252
O         1.441746188    0.833298824    9.980696512
BEGIN_BLOCK_DATAGRID_3D
3D_PWSCF
DATAGRID_3D_UNKNOWN
          33          33         241
  0.000000  0.000000  0.000000
  2.883487  0.000000  0.000000
 -1.441743  2.497173  0.000000
  0.000000  0.000000 21.415655
  0.12629E-01  0.10985E-01  0.64591E-02  0.43651E-03 -0.48840E-02 -0.76482E-02
 -0.75371E-02 -0.56828E-02 -0.35401E-02 -0.19453E-02 -0.10211E-02 -0.56667E-03
 -0.35754E-03 -0.25515E-03 -0.20265E-03 -0.17224E-03 -0.15918E-03 -0.17224E-03
 -0.20265E-03 -0.25515E-03 -0.35754E-03 -0.56667E-03 -0.10211E-02 -0.19453E-02
 -0.35401E-02 -0.56828E-02 -0.75371E-02 -0.76482E-02 -0.48840E-02  0.43651E-03
  0.64591E-02  0.10985E-01  0.12629E-01  0.10991E-01  0.10991E-01  0.79142E-02
  0.26439E-02 -0.29608E-02 -0.68131E-02 -0.78464E-02 -0.65870E-02 -0.44459E-02
 -0.25679E-02 -0.13620E-02 -0.72777E-03 -0.43150E-03 -0.29361E-03 -0.21978E-03
 -0.18145E-03 -0.16485E-03 -0.16485E-03 -0.18145E-03 -0.21978E-03 -0.29361E-03
 -0.43150E-03 -0.72777E-03 -0.13620E-02 -0.25679E-02 -0.44459E-02 -0.65870E-02
 -0.78464E-02 -0.68131E-02 -0.29608E-02  0.26439E-02  0.79142E-02  0.10991E-01
  0.64649E-02  0.78879E-02  0.64649E-02  0.26419E-02 -0.21942E-02 -0.61405E-02
 -0.78060E-02 -0.71214E-02 -0.51666E-02 -0.31584E-02 -0.17263E-02 -0.91423E-03
 -0.51450E-03 -0.33459E-03 -0.24644E-03 -0.19291E-03 -0.16677E-03 -0.15949E-03
 -0.16677E-03 -0.19291E-03 -0.24644E-03 -0.33459E-03 -0.51450E-03 -0.91423E-03
 -0.17263E-02 -0.31584E-02 -0.51666E-02 -0.71214E-02 -0.78060E-02 -0.61405E-02
 -0.21942E-02  0.26419E-02  0.64649E-02  0.43901E-03  0.25810E-02  0.25810E-02
  0.43901E-03 -0.29669E-02 -0.61462E-02 -0.77450E-02 -0.73473E-02 -0.56168E-02
 -0.36155E-02 -0.20527E-02 -0.11010E-02 -0.60994E-03 -0.37580E-03 -0.26556E-03
 -0.20698E-03 -0.17418E-03 -0.15749E-03 -0.15749E-03 -0.17418E-03 -0.20698E-03
 -0.26556E-03 -0.37580E-03 -0.60994E-03 -0.11010E-02 -0.20527E-02 -0.36155E-02
 -0.56168E-02 -0.73473E-02 -0.77450E-02 -0.61462E-02 -0.29669E-02  0.43901E-03
 -0.48892E-02 -0.30665E-02 -0.23299E-02 -0.30665E-02 -0.48892E-02 -0.68235E-02
 -0.78113E-02 -0.73486E-02 -0.57685E-02 -0.38617E-02 -0.22779E-02 -0.12482E-02
 -0.69085E-03 -0.41889E-03 -0.28492E-03 -0.21676E-03 -0.18070E-03 -0.16089E-03
 -0.15328E-03 -0.16089E-03 -0.18070E-03 -0.21676E-03 -0.28492E-03 -0.41889E-03
 -0.69085E-03 -0.12482E-02 -0.22779E-02 -0.38617E-02 -0.57685E-02 -0.73486E-02
 -0.78113E-02 -0.68235E-02 -0.48892E-02 -0.76642E-02 -0.69351E-02 -0.63272E-02
 -0.63272E-02 -0.69351E-02 -0.76642E-02 -0.78600E-02 -0.71294E-02 -0.56204E-02
 -0.38598E-02 -0.23555E-02 -0.13334E-02 -0.74745E-03 -0.45037E-03 -0.30524E-03
 -0.23094E-03 -0.18664E-03 -0.15902E-03 -0.14959E-03 -0.14959E-03 -0.15902E-03
 -0.18664E-03 -0.23094E-03 -0.30524E-03 -0.45037E-03 -0.74745E-03 -0.13334E-02
 -0.23555E-02 -0.38598E-02 -0.56204E-02 -0.71294E-02 -0.78600E-02 -0.76642E-02
 -0.75581E-02 -0.79512E-02 -0.79844E-02 -0.79508E-02 -0.79844E-02 -0.79512E-02
 -0.75581E-02 -0.66038E-02 -0.51774E-02 -0.36174E-02 -0.22770E-02 -0.13365E-02
 -0.77302E-03 -0.46913E-03 -0.31595E-03 -0.23606E-03 -0.19051E-03 -0.16176E-03
 -0.14895E-03 -0.14801E-03 -0.14895E-03 -0.16176E-03 -0.19051E-03 -0.23606E-03
 -0.31595E-03 -0.46913E-03 -0.77302E-03 -0.13365E-02 -0.22770E-02 -0.36174E-02
 -0.51774E-02 -0.66038E-02 -0.75581E-02 -0.57014E-02 -0.66724E-02 -0.72720E-02
 -0.75373E-02 -0.75373E-02 -0.72720E-02 -0.66724E-02 -0.57014E-02 -0.44605E-02
 -0.31683E-02 -0.20554E-02 -0.12497E-02 -0.74913E-03 -0.46870E-03 -0.32068E-03
 -0.24046E-03 -0.19071E-03 -0.16664E-03 -0.15395E-03 -0.14594E-03 -0.14594E-03
 -0.15395E-03 -0.16664E-03 -0.19071E-03 -0.24046E-03 -0.32068E-03 -0.46870E-03
 -0.74913E-03 -0.12497E-02 -0.20554E-02 -0.31683E-02 -0.44605E-02 -0.57014E-02
 -0.35512E-02 -0.45058E-02 -0.52824E-02 -0.57713E-02 -0.59367E-02 -0.57713E-02
 -0.52824E-02 -0.45058E-02 -0.35512E-02 -0.25773E-02 -0.17317E-02 -0.10998E-02
 -0.68734E-03 -0.44899E-03 -0.31567E-03 -0.24190E-03 -0.19515E-03 -0.16697E-03
 -0.15467E-03 -0.14568E-03 -0.14261E-03 -0.14568E-03 -0.15467E-03 -0.16697E-03
 -0.19515E-03 -0.24190E-03 -0.31567E-03 -0.44899E-03 -0.68734E-03 -0.10998E-02
 -0.17317E-02 -0.25773E-02 -0.35512E-02 -0.19495E-02 -0.26092E-02 -0.32379E-02
 -0.37254E-02 -0.39911E-02 -0.39911E-02 -0.37254E-02 -0.32379E-02 -0.26092E-02
 -0.19495E-02 -0.13636E-02 -0.91722E-03 -0.61162E-03 -0.42095E-03 -0.30631E-03
 -0.23395E-03 -0.19144E-03 -0.16492E-03 -0.14969E-03 -0.14465E-03 -0.14962E-03
 -0.14962E-03 -0.14465E-03 -0.14969E-03 -0.16492E-03 -0.19144E-03 -0.23395E-03
 -0.30631E-03 -0.42095E-03 -0.61162E-03 -0.91722E-03 -0.13636E-02 -0.19495E-02
 -0.10222E-02 -0.13870E-02 -0.17767E-02 -0.21279E-02 -0.23720E-02 -0.24587E-02
 -0.23720E-02 -0.21279E-02 -0.17767E-02 -0.13870E-02 -0.10222E-02 -0.72862E-03
 -0.51868E-03 -0.37740E-03 -0.28736E-03 -0.22884E-03 -0.18970E-03 -0.16599E-03
 -0.15145E-03 -0.14431E-03 -0.14507E-03 -0.14750E-03 -0.14507E-03 -0.14431E-03
 -0.15145E-03 -0.16599E-03 -0.18970E-03 -0.22884E-03 -0.28736E-03 -0.37740E-03
 -0.51868E-03 -0.72862E-03 -0.10222E-02 -0.56894E-03 -0.74422E-03 -0.94493E-03
 -0.11480E-02 -0.13177E-02 -0.14105E-02 -0.14105E-02 -0.13177E-02 -0.11480E-02
 -0.94493E-03 -0.74422E-03 -0.56894E-03 -0.43057E-03 -0.33105E-03 -0.26181E-03
 -0.21679E-03 -0.18744E-03 -0.16663E-03 -0.15389E-03 -0.14599E-03 -0.14317E-03
 -0.13972E-03 -0.13972E-03 -0.14317E-03 -0.14599E-03 -0.15389E-03 -0.16663E-03
 -0.18744E-03 -0.21679E-03 -0.26181E-03 -0.33105E-03 -0.43057E-03 -0.56894E-03
 -0.35757E-03 -0.44123E-03 -0.54011E-03 -0.64161E-03 -0.73554E-03 -0.80502E-03
 -0.82865E-03 -0.80502E-03 -0.73554E-03 -0.64161E-03 -0.54011E-03 -0.44123E-03
 -0.35757E-03 -0.29364E-03 -0.24631E-03 -0.20778E-03 -0.17956E-03 -0.15951E-03
 -0.15051E-03 -0.14418E-03 -0.13952E-03 -0.14198E-03 -0.14300E-03 -0.14198E-03
 -0.13952E-03 -0.14418E-03 -0.15051E-03 -0.15951E-03 -0.17956E-03 -0.20778E-03
 -0.24631E-03 -0.29364E-03 -0.35757E-03 -0.25491E-03 -0.29712E-03 -0.34687E-03
 -0.39855E-03 -0.44626E-03 -0.48882E-03 -0.51236E-03 -0.51236E-03 -0.48882E-03
 -0.44626E-03 -0.39855E-03 -0.34687E-03 -0.29712E-03 -0.25491E-03 -0.22203E-03
 -0.19532E-03 -0.17425E-03 -0.15807E-03 -0.14989E-03 -0.14909E-03 -0.14392E-03
 -0.14205E-03 -0.14329E-03 -0.14329E-03 -0.14205E-03 -0.14392E-03 -0.14909E-03
 -0.14989E-03 -0.15807E-03 -0.17425E-03 -0.19532E-03 -0.22203E-03 -0.25491E-03
 -0.20019E-03 -0.22391E-03 -0.25122E-03 -0.27850E-03 -0.30519E-03 -0.33001E-03
 -0.34541E-03 -0.34951E-03 -0.34541E-03 -0.33001E-03 -0.30519E-03 -0.27850E-03
 -0.25122E-03 -0.22391E-03 -0.20019E-03 -0.17954E-03 -0.16479E-03 -0.15766E-03
 -0.15269E-03 -0.15076E-03 -0.15108E-03 -0.15383E-03 -0.15273E-03 -0.14871E-03
 -0.15273E-03 -0.15383E-03 -0.15108E-03 -0.15076E-03 -0.15269E-03 -0.15766E-03
 -0.16479E-03 -0.17954E-03 -0.20019E-03 -0.17310E-03 -0.18372E-03 -0.19798E-03
 -0.21451E-03 -0.23100E-03 -0.24517E-03 -0.25110E-03 -0.25570E-03 -0.25570E-03
 -0.25110E-03 -0.24517E-03 -0.23100E-03 -0.21451E-03 -0.19798E-03 -0.18372E-03
 -0.17310E-03 -0.16390E-03 -0.15978E-03 -0.15778E-03 -0.15676E-03 -0.15773E-03
 -0.16263E-03 -0.16873E-03 -0.16762E-03 -0.16762E-03 -0.16873E-03 -0.16263E-03
 -0.15773E-03 -0.15676E-03 -0.15778E-03 -0.15978E-03 -0.16390E-03 -0.17310E-03
 -0.16047E-03 -0.16213E-03 -0.17012E-03 -0.17797E-03 -0.18581E-03 -0.19792E-03
 -0.20157E-03 -0.20191E-03 -0.20548E-03 -0.20191E-03 -0.20157E-03 -0.19792E-03
 -0.18581E-03 -0.17797E-03 -0.17012E-03 -0.16213E-03 -0.16047E-03 -0.16450E-03
 -0.16761E-03 -0.17133E-03 -0.18016E-03 -0.18660E-03 -0.18801E-03 -0.19048E-03
 -0.19269E-03 -0.19048E-03 -0.18801E-03 -0.18660E-03 -0.18016E-03 -0.17133E-03
 -0.16761E-03 -0.16450E-03 -0.16047E-03 -0.16794E-03 -0.15965E-03 -0.16011E-03
 -0.16170E-03 -0.16005E-03 -0.16393E-03 -0.17012E-03 -0.17210E-03 -0.17335E-03
 -0.17335E-03 -0.17210E-03 -0.17012E-03 -0.16393E-03 -0.16005E-03 -0.16170E-03
 -0.16011E-03 -0.15965E-03 -0.16794E-03 -0.17865E-03 -0.19077E-03 -0.20585E-03
 -0.21870E-03 -0.22683E-03 -0.23232E-03 -0.23790E-03 -0.23790E-03 -0.23232E-03
 -0.22683E-03 -0.21870E-03 -0.20585E-03 -0.19077E-03 -0.17865E-03 -0.16794E-03
 -0.19929E-03 -0.18204E-03 -0.16849E-03 -0.15974E-03 -0.15398E-03 -0.15082E-03
 -0.14598E-03 -0.14779E-03 -0.15283E-03 -0.15271E-03 -0.15283E-03 -0.14779E-03
 -0.14598E-03 -0.15082E-03 -0.15398E-03 -0.15974E-03 -0.16849E-03 -0.18204E-03
 -0.19929E-03 -0.21961E-03 -0.24392E-03 -0.26277E-03 -0.28093E-03 -0.30253E-03
 -0.31493E-03 -0.31741E-03 -0.31493E-03 -0.30253E-03 -0.28093E-03 -0.26277E-03
 -0.24392E-03 -0.21961E-03 -0.19929E-03 -0.25657E-03 -0.22634E-03 -0.19898E-03
 -0.17615E-03 -0.16155E-03 -0.15499E-03 -0.14746E-03 -0.14210E-03 -0.14343E-03
 -0.14059E-03 -0.14059E-03 -0.14343E-03 -0.14210E-03 -0.14746E-03 -0.15499E-03
 -0.16155E-03 -0.17615E-03 -0.19898E-03 -0.22634E-03 -0.25657E-03 -0.29138E-03
 -0.33096E-03 -0.37249E-03 -0.41503E-03 -0.44833E-03 -0.46340E-03 -0.46340E-03
 -0.44833E-03 -0.41503E-03 -0.37249E-03 -0.33096E-03 -0.29138E-03 -0.25657E-03
 -0.35298E-03 -0.29694E-03 -0.25277E-03 -0.21522E-03 -0.18546E-03 -0.16512E-03
 -0.14983E-03 -0.14544E-03 -0.14312E-03 -0.13550E-03 -0.13172E-03 -0.13550E-03
 -0.14312E-03 -0.14544E-03 -0.14983E-03 -0.16512E-03 -0.18546E-03 -0.21522E-03
 -0.25277E-03 -0.29694E-03 -0.35298E-03 -0.42414E-03 -0.51284E-03 -0.60434E-03
 -0.68271E-03 -0.74161E-03 -0.76547E-03 -0.74161E-03 -0.68271E-03 -0.60434E-03
 -0.51284E-03 -0.42414E-03 -0.35298E-03 -0.56090E-03 -0.43491E-03 -0.34293E-03
 -0.27749E-03 -0.22906E-03 -0.19574E-03 -0.16632E-03 -0.14829E-03 -0.14362E-03
 -0.13730E-03 -0.13863E-03 -0.13863E-03 -0.13730E-03 -0.14362E-03 -0.14829E-03
 -0.16632E-03 -0.19574E-03 -0.22906E-03 -0.27749E-03 -0.34293E-03 -0.43491E-03
 -0.56090E-03 -0.72309E-03 -0.90941E-03 -0.10892E-02 -0.12367E-02 -0.13250E-02
 -0.13250E-02 -0.12367E-02 -0.10892E-02 -0.90941E-03 -0.72309E-03 -0.56090E-03
 -0.10145E-02 -0.73764E-03 -0.53483E-03 -0.39496E-03 -0.30348E-03 -0.24530E-03
 -0.20350E-03 -0.17102E-03 -0.15203E-03 -0.14129E-03 -0.13884E-03 -0.14137E-03
 -0.13884E-03 -0.14129E-03 -0.15203E-03 -0.17102E-03 -0.20350E-03 -0.24530E-03
 -0.30348E-03 -0.39496E-03 -0.53483E-03 -0.73764E-03 -0.10145E-02 -0.13554E-02
 -0.17166E-02 -0.20373E-02 -0.22586E-02 -0.23373E-02 -0.22586E-02 -0.20373E-02
 -0.17166E-02 -0.13554E-02 -0.10145E-02 -0.19349E-02 -0.13754E-02 -0.93938E-03
 -0.63684E-03 -0.44459E-03 -0.32795E-03 -0.25298E-03 -0.20489E-03 -0.17187E-03
 -0.14940E-03 -0.13987E-03 -0.13346E-03 -0.13346E-03 -0.13987E-03 -0.14940E-03
 -0.17187E-03 -0.20489E-03 -0.25298E-03 -0.32795E-03 -0.44459E-03 -0.63684E-03
 -0.93938E-03 -0.13754E-02 -0.19349E-02 -0.25572E-02 -0.31429E-02 -0.35925E-02
 -0.38362E-02 -0.38362E-02 -0.35925E-02 -0.31429E-02 -0.25572E-02 -0.19349E-02
 -0.35246E-02 -0.25874E-02 -0.17607E-02 -0.11358E-02 -0.72678E-03 -0.48298E-03
 -0.34046E-03 -0.25711E-03 -0.20770E-03 -0.17142E-03 -0.15214E-03 -0.14420E-03
 -0.13934E-03 -0.14420E-03 -0.15214E-03 -0.17142E-03 -0.20770E-03 -0.25711E-03
 -0.34046E-03 -0.48298E-03 -0.72678E-03 -0.11358E-02 -0.17607E-02 -0.25874E-02
 -0.35246E-02 -0.44270E-02 -0.51427E-02 -0.55884E-02 -0.57390E-02 -0.55884E-02
 -0.51427E-02 -0.44270E-02 -0.35246E-02 -0.56606E-02 -0.44715E-02 -0.32106E-02
 -0.21081E-02 -0.13025E-02 -0.79469E-03 -0.50551E-03 -0.34670E-03 -0.25731E-03
 -0.20478E-03 -0.17248E-03 -0.15313E-03 -0.14439E-03 -0.14439E-03 -0.15313E-03
 -0.17248E-03 -0.20478E-03 -0.25731E-03 -0.34670E-03 -0.50551E-03 -0.79469E-03
 -0.13025E-02 -0.21081E-02 -0.32106E-02 -0.44715E-02 -0.56606E-02 -0.65608E-02
 -0.70899E-02 -0.73098E-02 -0.73098E-02 -0.70899E-02 -0.65608E-02 -0.56606E-02
 -0.75138E-02 -0.66313E-02 -0.52459E-02 -0.36987E-02 -0.23543E-02 -0.13974E-02
 -0.81996E-03 -0.50780E-03 -0.34125E-03 -0.25014E-03 -0.20064E-03 -0.16814E-03
 -0.14824E-03 -0.14412E-03 -0.14824E-03 -0.16814E-03 -0.20064E-03 -0.25014E-03
 -0.34125E-03 -0.50780E-03 -0.81996E-03 -0.13974E-02 -0.23543E-02 -0.36987E-02
 -0.52459E-02 -0.66313E-02 -0.75138E-02 -0.78208E-02 -0.77775E-02 -0.77103E-02
 -0.77775E-02 -0.78208E-02 -0.75138E-02 -0.76262E-02 -0.79086E-02 -0.72304E-02
 -0.57355E-02 -0.39664E-02 -0.24431E-02 -0.14001E-02 -0.79975E-03 -0.48607E-03
 -0.32853E-03 -0.24554E-03 -0.19592E-03 -0.16531E-03 -0.15505E-03 -0.15505E-03
 -0.16531E-03 -0.19592E-03 -0.24554E-03 -0.32853E-03 -0.48607E-03 -0.79975E-03
 -0.14001E-02 -0.24431E-02 -0.39664E-02 -0.57355E-02 -0.72304E-02 -0.79086E-02
 -0.76262E-02 -0.67975E-02 -0.61226E-02 -0.61226E-02 -0.67975E-02 -0.76262E-02
 -0.48708E-02 -0.69001E-02 -0.79419E-02 -0.74977E-02 -0.59045E-02 -0.39701E-02
 -0.23608E-02 -0.13113E-02 -0.73263E-03 -0.44520E-03 -0.30699E-03 -0.23206E-03
 -0.18610E-03 -0.16189E-03 -0.15613E-03 -0.16189E-03 -0.18610E-03 -0.23206E-03
 -0.30699E-03 -0.44520E-03 -0.73263E-03 -0.13113E-02 -0.23608E-02 -0.39701E-02
 -0.59045E-02 -0.74977E-02 -0.79419E-02 -0.69001E-02 -0.48708E-02 -0.29562E-02
 -0.21855E-02 -0.29562E-02 -0.48708E-02  0.43282E-03 -0.30577E-02 -0.62981E-02
 -0.79136E-02 -0.75024E-02 -0.57408E-02 -0.37061E-02 -0.21153E-02 -0.11418E-02
 -0.63768E-03 -0.39695E-03 -0.27938E-03 -0.21382E-03 -0.17480E-03 -0.15948E-03
 -0.15948E-03 -0.17480E-03 -0.21382E-03 -0.27938E-03 -0.39695E-03 -0.63768E-03
 -0.11418E-02 -0.21153E-02 -0.37061E-02 -0.57408E-02 -0.75024E-02 -0.79136E-02
 -0.62981E-02 -0.30577E-02  0.43282E-03  0.26327E-02  0.26327E-02  0.43282E-03
  0.64491E-02  0.25704E-02 -0.23232E-02 -0.63004E-02 -0.79509E-02 -0.72388E-02
 -0.52558E-02 -0.32199E-02 -0.17651E-02 -0.93969E-03 -0.53512E-03 -0.34643E-03
 -0.25174E-03 -0.19698E-03 -0.16998E-03 -0.16396E-03 -0.16998E-03 -0.19698E-03
 -0.25174E-03 -0.34643E-03 -0.53512E-03 -0.93969E-03 -0.17651E-02 -0.32199E-02
 -0.52558E-02 -0.72388E-02 -0.79509E-02 -0.63004E-02 -0.23232E-02  0.25704E-02
  0.64491E-02  0.79019E-02  0.64491E-02  0.10984E-01  0.78742E-02  0.25737E-02
 -0.30612E-02 -0.69138E-02 -0.79247E-02 -0.66471E-02 -0.44890E-02 -0.25988E-02
 -0.13817E-02 -0.73802E-03 -0.43721E-03 -0.29773E-03 -0.22579E-03 -0.18480E-03
 -0.16336E-03 -0.16336E-03 -0.18480E-03 -0.22579E-03 -0.29773E-03 -0.43721E-03
 -0.73802E-03 -0.13817E-02 -0.25988E-02 -0.44890E-02 -0.66471E-02 -0.79247E-02
 -0.69138E-02 -0.30612E-02  0.25737E-02  0.78742E-02  0.10984E-01  0.10984E-01
  0.12629E-01  0.10985E-01  0.64591E-02  0.43651E-03 -0.48840E-02 -0.76482E-02
 -0.75371E-02 -0.56828E-02 -0.35401E-02 -0.19453E-02 -0.10211E-02 -0.56667E-03
 -0.35754E-03 -0.25515E-03 -0.20265E-03 -0.17224E-03 -0.15918E-03 -0.17224E-03
 -0.20265E-03 -0.25515E-03 -0.35754E-03 -0.56667E-03 -0.10211E-02 -0.19453E-02
 -0.35401E-02 -0.56828E-02 -0.75371E-02 -0.76482E-02 -0.48840E-02  0.43651E-03
  0.64591E-02  0.10985E-01  0.12629E-01  0.60689E-02  0.42727E-02 -0.41341E-03
 -0.60748E-02 -0.10297E-01 -0.11512E-01 -0.99224E-02 -0.69945E-02 -0.42190E-02
 -0.23019E-02 -0.12247E-02 -0.69351E-03 -0.44191E-03 -0.31357E-03 -0.24174E-03
 -0.20436E-03 -0.19315E-03 -0.20436E-03 -0.24174E-03 -0.31357E-03 -0.44191E-03
 -0.69351E-03 -0.12247E-02 -0.23019E-02 -0.42190E-02 -0.69945E-02 -0.99224E-02
 -0.11512E-01 -0.10297E-01 -0.60748E-02 -0.41341E-03  0.42727E-02  0.60689E-02
  0.42777E-02  0.42777E-02  0.10633E-02 -0.40577E-02 -0.88669E-02 -0.11326E-01
 -0.10813E-01 -0.83026E-02 -0.53578E-02 -0.30447E-02 -0.16242E-02 -0.88412E-03
 -0.53307E-03 -0.36352E-03 -0.27016E-03 -0.21806E-03 -0.19624E-03 -0.19624E-03
 -0.21806E-03 -0.27016E-03 -0.36352E-03 -0.53307E-03 -0.88412E-03 -0.16242E-02
 -0.30447E-02 -0.53578E-02 -0.83026E-02 -0.10813E-01 -0.11326E-01 -0.88669E-02
 -0.40577E-02  0.10633E-02  0.42777E-02 -0.41238E-03  0.10113E-02 -0.41238E-03
 -0.40581E-02 -0.82378E-02 -0.10978E-01 -0.11168E-01 -0.91660E-02 -0.62928E-02
 -0.37523E-02 -0.20497E-02 -0.11060E-02 -0.64056E-03 -0.41772E-03 -0.30151E-03
 -0.23659E-03 -0.20172E-03 -0.18963E-03 -0.20172E-03 -0.23659E-03 -0.30151E-03
 -0.41772E-03 -0.64056E-03 -0.11060E-02 -0.20497E-02 -0.37523E-02 -0.62928E-02
 -0.91660E-02 -0.11168E-01 -0.10978E-01 -0.82378E-02 -0.40581E-02 -0.41238E-03
 -0.60789E-02 -0.41716E-02 -0.41716E-02 -0.60789E-02 -0.88650E-02 -0.10978E-01
 -0.11247E-01 -0.95809E-02 -0.68978E-02 -0.43067E-02 -0.24269E-02 -0.13172E-02
 -0.74821E-03 -0.47275E-03 -0.33225E-03 -0.25472E-03 -0.21309E-03 -0.19045E-03
 -0.19045E-03 -0.21309E-03 -0.25472E-03 -0.33225E-03 -0.47275E-03 -0.74821E-03
 -0.13172E-02 -0.24269E-02 -0.43067E-02 -0.68978E-02 -0.95809E-02 -0.11247E-01
 -0.10978E-01 -0.88650E-02 -0.60789E-02 -0.10307E-01 -0.90251E-02 -0.84623E-02
 -0.90251E-02 -0.10307E-01 -0.11331E-01 -0.11176E-01 -0.95881E-02 -0.71101E-02
 -0.46124E-02 -0.26955E-02 -0.14937E-02 -0.84434E-03 -0.52121E-03 -0.36200E-03
 -0.27443E-03 -0.22187E-03 -0.19420E-03 -0.18411E-03 -0.19420E-03 -0.22187E-03
 -0.27443E-03 -0.36200E-03 -0.52121E-03 -0.84434E-03 -0.14937E-02 -0.26955E-02
 -0.46124E-02 -0.71101E-02 -0.95881E-02 -0.11176E-01 -0.11331E-01 -0.10307E-01
 -0.11529E-01 -0.11492E-01 -0.11257E-01 -0.11257E-01 -0.11492E-01 -0.11529E-01
 -0.10824E-01 -0.91766E-02 -0.69058E-02 -0.46138E-02 -0.27898E-02 -0.15938E-02
 -0.91785E-03 -0.56686E-03 -0.38543E-03 -0.28896E-03 -0.22941E-03 -0.19579E-03
 -0.18170E-03 -0.18170E-03 -0.19579E-03 -0.22941E-03 -0.28896E-03 -0.38543E-03
 -0.56686E-03 -0.91785E-03 -0.15938E-02 -0.27898E-02 -0.46138E-02 -0.69058E-02
 -0.91766E-02 -0.10824E-01 -0.11529E-01 -0.99403E-02 -0.10960E-01 -0.11435E-01
 -0.11561E-01 -0.11435E-01 -0.10960E-01 -0.99403E-02 -0.83114E-02 -0.62972E-02
 -0.43099E-02 -0.26978E-02 -0.15942E-02 -0.93734E-03 -0.58700E-03 -0.40291E-03
 -0.29763E-03 -0.23465E-03 -0.19878E-03 -0.18282E-03 -0.17731E-03 -0.18282E-03
 -0.19878E-03 -0.23465E-03 -0.29763E-03 -0.40291E-03 -0.58700E-03 -0.93734E-03
 -0.15942E-02 -0.26978E-02 -0.43099E-02 -0.62972E-02 -0.83114E-02 -0.99403E-02
 -0.70089E-02 -0.84121E-02 -0.93839E-02 -0.98644E-02 -0.98644E-02 -0.93839E-02
 -0.84121E-02 -0.70089E-02 -0.53628E-02 -0.37533E-02 -0.24297E-02 -0.14974E-02
 -0.91604E-03 -0.58374E-03 -0.40523E-03 -0.30293E-03 -0.23933E-03 -0.20217E-03
 -0.18211E-03 -0.17271E-03 -0.17271E-03 -0.18211E-03 -0.20217E-03 -0.23933E-03
 -0.30293E-03 -0.40523E-03 -0.58374E-03 -0.91604E-03 -0.14974E-02 -0.24297E-02
 -0.37533E-02 -0.53628E-02 -0.70089E-02 -0.42298E-02 -0.54253E-02 -0.64404E-02
 -0.71101E-02 -0.73429E-02 -0.71101E-02 -0.64404E-02 -0.54253E-02 -0.42298E-02
 -0.30501E-02 -0.20502E-02 -0.13174E-02 -0.84725E-03 -0.56734E-03 -0.40223E-03
 -0.30390E-03 -0.24059E-03 -0.20351E-03 -0.18073E-03 -0.16759E-03 -0.16518E-03
 -0.16759E-03 -0.18073E-03 -0.20351E-03 -0.24059E-03 -0.30390E-03 -0.40223E-03
 -0.56734E-03 -0.84725E-03 -0.13174E-02 -0.20502E-02 -0.30501E-02 -0.42298E-02
 -0.23103E-02 -0.30887E-02 -0.38490E-02 -0.44516E-02 -0.47870E-02 -0.47870E-02
 -0.44516E-02 -0.38490E-02 -0.30887E-02 -0.23103E-02 -0.16304E-02 -0.11066E-02
 -0.74723E-03 -0.52377E-03 -0.38538E-03 -0.29776E-03 -0.23986E-03 -0.20250E-03
 -0.18240E-03 -0.16864E-03 -0.16524E-03 -0.16524E-03 -0.16864E-03 -0.18240E-03
 -0.20250E-03 -0.23986E-03 -0.29776E-03 -0.38538E-03 -0.52377E-03 -0.74723E-03
 -0.11066E-02 -0.16304E-02 -0.23103E-02 -0.12292E-02 -0.16510E-02 -0.21081E-02
 -0.25220E-02 -0.28128E-02 -0.29185E-02 -0.28128E-02 -0.25220E-02 -0.21081E-02
 -0.16510E-02 -0.12292E-02 -0.88892E-03 -0.63992E-03 -0.47166E-03 -0.36197E-03
 -0.28690E-03 -0.23539E-03 -0.20053E-03 -0.18074E-03 -0.17124E-03 -0.16533E-03
 -0.16375E-03 -0.16533E-03 -0.17124E-03 -0.18074E-03 -0.20053E-03 -0.23539E-03
 -0.28690E-03 -0.36197E-03 -0.47166E-03 -0.63992E-03 -0.88892E-03 -0.12292E-02
 -0.69309E-03 -0.89975E-03 -0.11382E-02 -0.13750E-02 -0.15688E-02 -0.16776E-02
 -0.16776E-02 -0.15688E-02 -0.13750E-02 -0.11382E-02 -0.89975E-03 -0.69309E-03
 -0.53347E-03 -0.41711E-03 -0.33358E-03 -0.27350E-03 -0.22911E-03 -0.19895E-03
 -0.17958E-03 -0.17127E-03 -0.16940E-03 -0.16501E-03 -0.16501E-03 -0.16940E-03
 -0.17127E-03 -0.17958E-03 -0.19895E-03 -0.22911E-03 -0.27350E-03 -0.33358E-03
 -0.41711E-03 -0.53347E-03 -0.69309E-03 -0.44201E-03 -0.53895E-03 -0.65872E-03
 -0.78452E-03 -0.89431E-03 -0.97178E-03 -0.99938E-03 -0.97178E-03 -0.89431E-03
 -0.78452E-03 -0.65872E-03 -0.53895E-03 -0.44201E-03 -0.36487E-03 -0.30137E-03
 -0.25260E-03 -0.21881E-03 -0.19564E-03 -0.18072E-03 -0.17148E-03 -0.17039E-03
 -0.17144E-03 -0.17053E-03 -0.17144E-03 -0.17039E-03 -0.17148E-03 -0.18072E-03
 -0.19564E-03 -0.21881E-03 -0.25260E-03 -0.30137E-03 -0.36487E-03 -0.44201E-03
 -0.31507E-03 -0.36766E-03 -0.42601E-03 -0.48984E-03 -0.54881E-03 -0.59614E-03
 -0.62251E-03 -0.62251E-03 -0.59614E-03 -0.54881E-03 -0.48984E-03 -0.42601E-03
 -0.36766E-03 -0.31507E-03 -0.26910E-03 -0.23511E-03 -0.21239E-03 -0.19393E-03
 -0.18122E-03 -0.17507E-03 -0.17062E-03 -0.16952E-03 -0.17221E-03 -0.17221E-03
 -0.16952E-03 -0.17062E-03 -0.17507E-03 -0.18122E-03 -0.19393E-03 -0.21239E-03
 -0.23511E-03 -0.26910E-03 -0.31507E-03 -0.24097E-03 -0.27156E-03 -0.30769E-03
 -0.34098E-03 -0.37118E-03 -0.40236E-03 -0.42340E-03 -0.42835E-03 -0.42340E-03
 -0.40236E-03 -0.37118E-03 -0.34098E-03 -0.30769E-03 -0.27156E-03 -0.24097E-03
 -0.21836E-03 -0.20270E-03 -0.19054E-03 -0.18234E-03 -0.18147E-03 -0.18157E-03
 -0.17897E-03 -0.17825E-03 -0.17937E-03 -0.17825E-03 -0.17897E-03 -0.18157E-03
 -0.18147E-03 -0.18234E-03 -0.19054E-03 -0.20270E-03 -0.21836E-03 -0.24097E-03
 -0.20667E-03 -0.21700E-03 -0.23425E-03 -0.25717E-03 -0.27380E-03 -0.29049E-03
 -0.30757E-03 -0.31414E-03 -0.31414E-03 -0.30757E-03 -0.29049E-03 -0.27380E-03
 -0.25717E-03 -0.23425E-03 -0.21700E-03 -0.20667E-03 -0.19388E-03 -0.18573E-03
 -0.18685E-03 -0.19167E-03 -0.19503E-03 -0.19830E-03 -0.20117E-03 -0.20120E-03
 -0.20120E-03 -0.20117E-03 -0.19830E-03 -0.19503E-03 -0.19167E-03 -0.18685E-03
 -0.18573E-03 -0.19388E-03 -0.20667E-03 -0.19282E-03 -0.19282E-03 -0.19522E-03
 -0.20445E-03 -0.21583E-03 -0.22448E-03 -0.23081E-03 -0.23684E-03 -0.23981E-03
 -0.23684E-03 -0.23081E-03 -0.22448E-03 -0.21583E-03 -0.20445E-03 -0.19522E-03
 -0.19282E-03 -0.19282E-03 -0.19407E-03 -0.20216E-03 -0.21219E-03 -0.21954E-03
 -0.22652E-03 -0.23321E-03 -0.23783E-03 -0.23940E-03 -0.23783E-03 -0.23321E-03
 -0.22652E-03 -0.21954E-03 -0.21219E-03 -0.20216E-03 -0.19407E-03 -0.19282E-03
 -0.20650E-03 -0.19432E-03 -0.18695E-03 -0.18374E-03 -0.18575E-03 -0.19246E-03
 -0.19338E-03 -0.19210E-03 -0.19390E-03 -0.19390E-03 -0.19210E-03 -0.19338E-03
 -0.19246E-03 -0.18575E-03 -0.18374E-03 -0.18695E-03 -0.19432E-03 -0.20650E-03
 -0.22055E-03 -0.23630E-03 -0.25336E-03 -0.27262E-03 -0.28594E-03 -0.29318E-03
 -0.30117E-03 -0.30117E-03 -0.29318E-03 -0.28594E-03 -0.27262E-03 -0.25336E-03
 -0.23630E-03 -0.22055E-03 -0.20650E-03 -0.23923E-03 -0.21707E-03 -0.20045E-03
 -0.18745E-03 -0.17772E-03 -0.17506E-03 -0.17156E-03 -0.16824E-03 -0.16769E-03
 -0.16682E-03 -0.16769E-03 -0.16824E-03 -0.17156E-03 -0.17506E-03 -0.17772E-03
 -0.18745E-03 -0.20045E-03 -0.21707E-03 -0.23923E-03 -0.26647E-03 -0.29743E-03
 -0.32944E-03 -0.36015E-03 -0.38259E-03 -0.39774E-03 -0.40450E-03 -0.39774E-03
 -0.38259E-03 -0.36015E-03 -0.32944E-03 -0.29743E-03 -0.26647E-03 -0.23923E-03
 -0.31075E-03 -0.26559E-03 -0.23157E-03 -0.20611E-03 -0.18518E-03 -0.17077E-03
 -0.16043E-03 -0.15677E-03 -0.15809E-03 -0.15725E-03 -0.15725E-03 -0.15809E-03
 -0.15677E-03 -0.16043E-03 -0.17077E-03 -0.18518E-03 -0.20611E-03 -0.23157E-03
 -0.26559E-03 -0.31075E-03 -0.36248E-03 -0.41489E-03 -0.46738E-03 -0.52067E-03
 -0.56183E-03 -0.58075E-03 -0.58075E-03 -0.56183E-03 -0.52067E-03 -0.46738E-03
 -0.41489E-03 -0.36248E-03 -0.31075E-03 -0.44223E-03 -0.36454E-03 -0.30271E-03
 -0.25383E-03 -0.21371E-03 -0.18697E-03 -0.16805E-03 -0.15836E-03 -0.15439E-03
 -0.15059E-03 -0.15058E-03 -0.15059E-03 -0.15439E-03 -0.15836E-03 -0.16805E-03
 -0.18697E-03 -0.21371E-03 -0.25383E-03 -0.30271E-03 -0.36454E-03 -0.44223E-03
 -0.53401E-03 -0.63620E-03 -0.74292E-03 -0.84205E-03 -0.90944E-03 -0.93205E-03
 -0.90944E-03 -0.84205E-03 -0.74292E-03 -0.63620E-03 -0.53401E-03 -0.44223E-03
 -0.68984E-03 -0.53783E-03 -0.42361E-03 -0.33984E-03 -0.27264E-03 -0.22438E-03
 -0.19349E-03 -0.16989E-03 -0.15687E-03 -0.14869E-03 -0.14768E-03 -0.14768E-03
 -0.14869E-03 -0.15687E-03 -0.16989E-03 -0.19349E-03 -0.22438E-03 -0.27264E-03
 -0.33984E-03 -0.42361E-03 -0.53783E-03 -0.68984E-03 -0.88143E-03 -0.10969E-02
 -0.13107E-02 -0.14876E-02 -0.15866E-02 -0.15866E-02 -0.14876E-02 -0.13107E-02
 -0.10969E-02 -0.88143E-03 -0.68984E-03 -0.12178E-02 -0.89428E-03 -0.65500E-03
 -0.48561E-03 -0.37070E-03 -0.28905E-03 -0.23155E-03 -0.19182E-03 -0.16652E-03
 -0.15697E-03 -0.15294E-03 -0.15042E-03 -0.15294E-03 -0.15697E-03 -0.16652E-03
 -0.19182E-03 -0.23155E-03 -0.28905E-03 -0.37070E-03 -0.48561E-03 -0.65500E-03
 -0.89428E-03 -0.12178E-02 -0.16151E-02 -0.20363E-02 -0.24174E-02 -0.26820E-02
 -0.27747E-02 -0.26820E-02 -0.24174E-02 -0.20363E-02 -0.16151E-02 -0.12178E-02
 -0.22952E-02 -0.16395E-02 -0.11339E-02 -0.77900E-03 -0.54574E-03 -0.40161E-03
 -0.30316E-03 -0.23421E-03 -0.19274E-03 -0.16795E-03 -0.15707E-03 -0.14847E-03
 -0.14847E-03 -0.15707E-03 -0.16795E-03 -0.19274E-03 -0.23421E-03 -0.30316E-03
 -0.40161E-03 -0.54574E-03 -0.77900E-03 -0.11339E-02 -0.16395E-02 -0.22952E-02
 -0.30316E-02 -0.37362E-02 -0.42894E-02 -0.45887E-02 -0.45887E-02 -0.42894E-02
 -0.37362E-02 -0.30316E-02 -0.22952E-02 -0.42093E-02 -0.30719E-02 -0.20945E-02
 -0.13690E-02 -0.89015E-03 -0.59594E-03 -0.42305E-03 -0.31114E-03 -0.23972E-03
 -0.19456E-03 -0.16627E-03 -0.15638E-03 -0.15376E-03 -0.15638E-03 -0.16627E-03
 -0.19456E-03 -0.23972E-03 -0.31114E-03 -0.42305E-03 -0.59594E-03 -0.89015E-03
 -0.13690E-02 -0.20945E-02 -0.30719E-02 -0.42093E-02 -0.53382E-02 -0.62713E-02
 -0.68739E-02 -0.70798E-02 -0.68739E-02 -0.62713E-02 -0.53382E-02 -0.42093E-02
 -0.69746E-02 -0.53987E-02 -0.38276E-02 -0.25074E-02 -0.15652E-02 -0.97060E-03
 -0.62257E-03 -0.42889E-03 -0.31119E-03 -0.23556E-03 -0.19025E-03 -0.16892E-03
 -0.16258E-03 -0.16258E-03 -0.16892E-03 -0.19025E-03 -0.23556E-03 -0.31119E-03
 -0.42889E-03 -0.62257E-03 -0.97060E-03 -0.15652E-02 -0.25074E-02 -0.38276E-02
 -0.53987E-02 -0.69746E-02 -0.82751E-02 -0.91384E-02 -0.95524E-02 -0.95524E-02
 -0.91384E-02 -0.82751E-02 -0.69746E-02 -0.98999E-02 -0.83735E-02 -0.64098E-02
 -0.44296E-02 -0.27984E-02 -0.16729E-02 -0.99521E-03 -0.62087E-03 -0.42224E-03
 -0.30430E-03 -0.23019E-03 -0.19161E-03 -0.16992E-03 -0.16098E-03 -0.16992E-03
 -0.19161E-03 -0.23019E-03 -0.30430E-03 -0.42224E-03 -0.62087E-03 -0.99521E-03
 -0.16729E-02 -0.27984E-02 -0.44296E-02 -0.64098E-02 -0.83735E-02 -0.98999E-02
 -0.10784E-01 -0.11141E-01 -0.11219E-01 -0.11141E-01 -0.10784E-01 -0.98999E-02
 -0.11493E-01 -0.10923E-01 -0.93439E-02 -0.70779E-02 -0.47615E-02 -0.28993E-02
 -0.16693E-02 -0.96682E-03 -0.59459E-03 -0.40330E-03 -0.29201E-03 -0.22658E-03
 -0.19095E-03 -0.17003E-03 -0.17003E-03 -0.19095E-03 -0.22658E-03 -0.29201E-03
 -0.40330E-03 -0.59459E-03 -0.96682E-03 -0.16693E-02 -0.28993E-02 -0.47615E-02
 -0.70779E-02 -0.93439E-02 -0.10923E-01 -0.11493E-01 -0.11300E-01 -0.10952E-01
 -0.10952E-01 -0.11300E-01 -0.11493E-01 -0.10282E-01 -0.11460E-01 -0.11398E-01
 -0.98245E-02 -0.73103E-02 -0.47620E-02 -0.27967E-02 -0.15638E-02 -0.89041E-03
 -0.54621E-03 -0.37078E-03 -0.27331E-03 -0.21828E-03 -0.18620E-03 -0.17489E-03
 -0.18620E-03 -0.21828E-03 -0.27331E-03 -0.37078E-03 -0.54621E-03 -0.89041E-03
 -0.15638E-02 -0.27967E-02 -0.47620E-02 -0.73103E-02 -0.98245E-02 -0.11398E-01
 -0.11460E-01 -0.10282E-01 -0.88481E-02 -0.82194E-02 -0.88481E-02 -0.10282E-01
 -0.60699E-02 -0.90052E-02 -0.11229E-01 -0.11528E-01 -0.98291E-02 -0.70830E-02
 -0.44337E-02 -0.25099E-02 -0.13710E-02 -0.78027E-03 -0.48692E-03 -0.33688E-03
 -0.25524E-03 -0.20747E-03 -0.18580E-03 -0.18580E-03 -0.20747E-03 -0.25524E-03
 -0.33688E-03 -0.48692E-03 -0.78027E-03 -0.13710E-02 -0.25099E-02 -0.44337E-02
 -0.70830E-02 -0.98291E-02 -0.11528E-01 -0.11229E-01 -0.90052E-02 -0.60699E-02
 -0.40566E-02 -0.40566E-02 -0.60699E-02 -0.41365E-03 -0.41679E-02 -0.84494E-02
 -0.11234E-01 -0.11407E-01 -0.93548E-02 -0.64219E-02 -0.38352E-02 -0.20994E-02
 -0.11368E-02 -0.65959E-03 -0.42612E-03 -0.30477E-03 -0.23544E-03 -0.19928E-03
 -0.18982E-03 -0.19928E-03 -0.23544E-03 -0.30477E-03 -0.42612E-03 -0.65959E-03
 -0.11368E-02 -0.20994E-02 -0.38352E-02 -0.64219E-02 -0.93548E-02 -0.11407E-01
 -0.11234E-01 -0.84494E-02 -0.41679E-02 -0.41365E-03  0.10597E-02 -0.41365E-03
  0.42734E-02  0.10057E-02 -0.41698E-02 -0.90111E-02 -0.11470E-01 -0.10936E-01
 -0.83903E-02 -0.54116E-02 -0.30783E-02 -0.16472E-02 -0.90141E-03 -0.54275E-03
 -0.36662E-03 -0.27151E-03 -0.21731E-03 -0.19296E-03 -0.19296E-03 -0.21731E-03
 -0.27151E-03 -0.36662E-03 -0.54275E-03 -0.90141E-03 -0.16472E-02 -0.30783E-02
 -0.54116E-02 -0.83903E-02 -0.10936E-01 -0.11470E-01 -0.90111E-02 -0.41698E-02
  0.10057E-02  0.42734E-02  0.42734E-02  0.60689E-02  0.42727E-02 -0.41341E-03
 -0.60748E-02 -0.10297E-01 -0.11512E-01 -0.99224E-02 -0.69945E-02 -0.42190E-02
 -0.23019E-02 -0.12247E-02 -0.69351E-03 -0.44191E-03 -0.31357E-03 -0.24174E-03
 -0.20436E-03 -0.19315E-03 -0.20436E-03 -0.24174E-03 -0.31357E-03 -0.44191E-03
 -0.69351E-03 -0.12247E-02 -0.23019E-02 -0.42190E-02 -0.69945E-02 -0.99224E-02
 -0.11512E-01 -0.10297E-01 -0.60748E-02 -0.41341E-03  0.42727E-02  0.60689E-02
 -0.60779E-02 -0.73864E-02 -0.10568E-01 -0.13802E-01 -0.15203E-01 -0.13980E-01
 -0.10827E-01 -0.71970E-02 -0.42396E-02 -0.23259E-02 -0.12791E-02 -0.75598E-03
 -0.49319E-03 -0.35338E-03 -0.27187E-03 -0.22750E-03 -0.21478E-03 -0.22750E-03
 -0.27187E-03 -0.35338E-03 -0.49319E-03 -0.75598E-03 -0.12791E-02 -0.23259E-02
 -0.42396E-02 -0.71970E-02 -0.10827E-01 -0.13980E-01 -0.15203E-01 -0.13802E-01
 -0.10568E-01 -0.73864E-02 -0.60779E-02 -0.73844E-02 -0.73844E-02 -0.96001E-02
 -0.12726E-01 -0.14881E-01 -0.14719E-01 -0.12273E-01 -0.87270E-02 -0.54171E-02